************************************************************
This is node03.cluster of cluster Pinconning.
Date: Wed Nov  8 11:44:08 PST 2023
************************************************************
 Set GAUSS_MDEF to "32GB".
 Set GAUSS_PDEF to "12".
 Entering Gaussian System, Link 0=gdv
 Initial command:
 /opt/gaussian/gdv-20210302-j15/gdv/l1.exe "/tmp/896681.1.allnodes.q/Gau-8441.inp" -scrdir="/tmp/896681.1.allnodes.q/"
 Default is to use a total of  12 processors:
                               12 via shared-memory
                                1 via Linda
 Entering Link 1 = /opt/gaussian/gdv-20210302-j15/gdv/l1.exe PID=      8442.
  
 Copyright (c) 1988-2021, Gaussian, Inc.  All Rights Reserved.
  
 This is the private, development version of
 the Gaussian(R) DV system of programs. It is based on
 the Gaussian(R) 16 system (copyright 2016, Gaussian, Inc.),
 the Gaussian(R) 09 system (copyright 2009, Gaussian, Inc.),
 the Gaussian(R) 03 system (copyright 2003, Gaussian, Inc.),
 the Gaussian(R) 98 system (copyright 1998, Gaussian, Inc.),
 the Gaussian(R) 94 system (copyright 1995, Gaussian, Inc.),
 the Gaussian 92(TM) system (copyright 1992, Gaussian, Inc.),
 the Gaussian 90(TM) system (copyright 1990, Gaussian, Inc.),
 the Gaussian 88(TM) system (copyright 1988, Gaussian, Inc.),
 the Gaussian 86(TM) system (copyright 1986, Carnegie Mellon
 University), and the Gaussian 82(TM) system (copyright 1983,
 Carnegie Mellon University). Gaussian is a federally registered
 trademark of Gaussian, Inc.
  
 This software contains proprietary and confidential information,
 including trade secrets, belonging to Gaussian, Inc.
  
 This software is provided under written license and may be
 used, copied, transmitted, or stored only in accord with that
 written license.
  
 The following legend is applicable only to US Government
 contracts under FAR:
  
                    RESTRICTED RIGHTS LEGEND
  
 Use, reproduction and disclosure by the US Government is
 subject to restrictions as set forth in subparagraphs (a)
 and (c) of the Commercial Computer Software - Restricted
 Rights clause in FAR 52.227-19.
  
 Gaussian, Inc.
 340 Quinnipiac St., Bldg. 40, Wallingford CT 06492
  
  
 ---------------------------------------------------------------
 Warning -- This program may not be used in any manner that
 competes with the business of Gaussian, Inc. or will provide
 assistance to any competitor of Gaussian, Inc.  The licensee
 of this program is prohibited from giving any competitor of
 Gaussian, Inc. access to this program.  By using this program,
 the user acknowledges that Gaussian, Inc. is engaged in the
 business of creating and licensing software in the field of
 computational chemistry and represents and warrants to the
 licensee that it is not a competitor of Gaussian, Inc. and that
 it will not use this program in any manner prohibited above.
 ---------------------------------------------------------------
  

 Cite this work as:
 Gaussian Development Version, Revision J.15,
 M. J. Frisch, G. W. Trucks, H. B. Schlegel, G. E. Scuseria, 
 M. A. Robb, J. R. Cheeseman, G. Scalmani, V. Barone, 
 G. A. Petersson, H. Nakatsuji, X. Li, A. V. Marenich, M. Caricato, 
 J. Bloino, B. G. Janesko, J. Zheng, R. Gomperts, B. Mennucci, 
 H. P. Hratchian, J. V. Ortiz, A. F. Izmaylov, J. L. Sonnenberg, 
 D. Williams-Young, F. Ding, F. Lipparini, F. Egidi, J. Goings, 
 B. Peng, A. Petrone, T. Henderson, D. Ranasinghe, V. G. Zakrzewski, 
 J. Gao, N. Rega, G. Zheng, W. Liang, M. Hada, M. Ehara, K. Toyota, 
 R. Fukuda, J. Hasegawa, M. Ishida, T. Nakajima, Y. Honda, O. Kitao, 
 H. Nakai, T. Vreven, K. Throssell, J. A. Montgomery, Jr., 
 J. E. Peralta, F. Ogliaro, M. J. Bearpark, J. J. Heyd, 
 E. N. Brothers, K. N. Kudin, V. N. Staroverov, T. A. Keith, 
 R. Kobayashi, J. Normand, K. Raghavachari, A. P. Rendell, 
 J. C. Burant, S. S. Iyengar, J. Tomasi, M. Cossi, J. M. Millam, 
 M. Klene, C. Adamo, R. Cammi, J. W. Ochterski, R. L. Martin, 
 K. Morokuma, O. Farkas, J. B. Foresman, and D. J. Fox, 
 Gaussian, Inc., Wallingford CT, 2020.
 
 ******************************************
 Gaussian DV:  ES64L-GDVRevJ.15 23-Feb-2021
                 8-Nov-2023 
 ******************************************
 %chk=form_dipole.chk
 ------------------------------------
 #P 6-31G blyp geom=modela output=mat
 ------------------------------------
 1/29=4,37=210000000,38=1,172=1/1;
 2/12=2/2;
 3/5=1,6=6,11=2,25=1,30=1,74=4002/1,2,3,8;
 4//1;
 5/5=2,38=5/2;
 6/7=2,8=2,9=2,10=2,28=1/1;
 99/5=1,6=100000,9=1/99;
 Leave Link    1 at Wed Nov  8 11:44:08 2023, MaxMem=           0 cpu:               0.1 elap:               0.0
 (Enter /opt/gaussian/gdv-20210302-j15/gdv/l101.exe)
 -------------------------
 formaldehyde dipole check
 -------------------------
 Charge =  0 Multiplicity = 1
 Model A used to generate z-matrix:
 Short formula matrix:
   Atom   Symbol  Geom  Angle   Array F
    1        C    Trig         2   3   4
    2        O                 1   0   0
    3        H                 1   0   0
    4        H                 1   0   0
 Generated Z-Matrix:
 C
 O,1,R2
 H,1,R3,2,A3
 H,1,R3,2,A3,3,180.,0
      Variables:
 R2=1.22
 R3=1.08
 A3=120.
 ITRead=  0  0  0  0
 MicOpt= -1 -1 -1 -1
 NAtoms=      4 NQM=        4 NQMF=       0 NMMI=      0 NMMIF=      0
                NMic=       0 NMicF=      0.
                    Isotopes and Nuclear Properties:
 (Nuclear quadrupole moments (NQMom) in fm**2, nuclear magnetic moments (NMagM)
  in nuclear magnetons)

  Atom         1           2           3           4
 IAtWgt=          12          16           1           1
 AtmWgt=  12.0000000  15.9949146   1.0078250   1.0078250
 NucSpn=           0           0           1           1
 AtZEff=  -0.0000000  -0.0000000  -0.0000000  -0.0000000
 NQMom=    0.0000000   0.0000000   0.0000000   0.0000000
 NMagM=    0.0000000   0.0000000   2.7928460   2.7928460
 AtZNuc=   6.0000000   8.0000000   1.0000000   1.0000000
 Leave Link  101 at Wed Nov  8 11:44:08 2023, MaxMem=  4294967296 cpu:               0.3 elap:               0.2
 (Enter /opt/gaussian/gdv-20210302-j15/gdv/l202.exe)
                          Input orientation:                          
 ---------------------------------------------------------------------
 Center     Atomic      Atomic             Coordinates (Angstroms)
 Number     Number       Type             X           Y           Z
 ---------------------------------------------------------------------
      1          6           0        0.000000   -0.000000    0.000000
      2          8           0       -0.000000    0.000000    1.220000
      3          1           0        0.935307   -0.000000   -0.540000
      4          1           0       -0.935307    0.000000   -0.540000
 ---------------------------------------------------------------------
                    Distance matrix (angstroms):
                    1          2          3          4
     1  C    0.000000
     2  O    1.220000   0.000000
     3  H    1.080000   1.993088   0.000000
     4  H    1.080000   1.993088   1.870615   0.000000
 Stoichiometry    CH2O
 Framework group  C2V[C2(CO),SGV(H2)]
 Deg. of freedom     3
 Full point group                 C2V     NOp   4
 Largest Abelian subgroup         C2V     NOp   4
 Largest concise Abelian subgroup C2      NOp   2
                         Standard orientation:                         
 ---------------------------------------------------------------------
 Center     Atomic      Atomic             Coordinates (Angstroms)
 Number     Number       Type             X           Y           Z
 ---------------------------------------------------------------------
      1          6           0        0.000000   -0.000000   -0.542500
      2          8           0        0.000000    0.000000    0.677500
      3          1           0        0.000000    0.935307   -1.082500
      4          1           0       -0.000000   -0.935307   -1.082500
 ---------------------------------------------------------------------
 Rotational constants (GHZ):         286.6112851          38.6312366          34.0427454
 Leave Link  202 at Wed Nov  8 11:44:08 2023, MaxMem=  4294967296 cpu:               0.1 elap:               0.0
 (Enter /opt/gaussian/gdv-20210302-j15/gdv/l301.exe)
 Standard basis: 6-31G (6D, 7F)
 Ernie: Thresh=  0.10000D-02 Tol=  0.10000D-05 Strict=F.
 There are    12 symmetry adapted cartesian basis functions of A1  symmetry.
 There are     0 symmetry adapted cartesian basis functions of A2  symmetry.
 There are     4 symmetry adapted cartesian basis functions of B1  symmetry.
 There are     6 symmetry adapted cartesian basis functions of B2  symmetry.
 There are    12 symmetry adapted basis functions of A1  symmetry.
 There are     0 symmetry adapted basis functions of A2  symmetry.
 There are     4 symmetry adapted basis functions of B1  symmetry.
 There are     6 symmetry adapted basis functions of B2  symmetry.
    22 basis functions,    52 primitive gaussians,    22 cartesian basis functions
     8 alpha electrons        8 beta electrons
       nuclear repulsion energy        31.2308222223 Hartrees.
 IExCor=    4002 DFT=T Ex=B Corr=LYP N6=None ScaHFX=  0.000000
 ScaDFX=  1.000000  1.000000  1.000000  1.000000  1.000000  0.000000
 ScaDFX=  0.000000  0.000000  0.000000  0.000000  0.000000  0.000000
 IRadAn=      5 IRanWt=     -1 IRanGd=            0 ICorTp=0 IEmpDi=  4
 NAtoms=    4 NActive=    4 NUniq=    3 SFac= 1.78D+00 NAtFMM=   60 NAOKFM=F Big=F
 Integral buffers will be    131072 words long.
 Raffenetti 2 integral format.
 Two-electron integral symmetry is turned on.
 Leave Link  301 at Wed Nov  8 11:44:08 2023, MaxMem=  4294967296 cpu:               0.1 elap:               0.1
 (Enter /opt/gaussian/gdv-20210302-j15/gdv/l302.exe)
 NPDir=0 NMtPBC=     1 NCelOv=     1 NCel=       1 NClECP=     1 NCelD=      1
         NCelK=      1 NCelE2=     1 NClLst=     1 CellRange=     0.0.
 One-electron integrals computed using PRISM.
 One-electron integral symmetry used in STVInt
 NBasis=    22 RedAO= T EigKep=  2.26D-02  NBF=    12     0     4     6
 NBsUse=    22 1.00D-06 EigRej= -1.00D+00 NBFU=    12     0     4     6
 Precomputing XC quadrature grid using
 IXCGrd= 4 IRadAn=           5 IRanWt=          -1 IRanGd=           0 AccXCQ= 0.00D+00.
 Generated NRdTot=       0 NPtTot=       90006 NUsed=           0 NTot=          64
 NSgBfM=    22    22    22    22    22 MxSgAt=     4 MxSgA2=     4 SizInc=   0.000
 NMBTot=      829 MaxBatPerAtom=       82 MaxMicBPerAtom=      212 NBfPt=             1714734.
 Leave Link  302 at Wed Nov  8 11:44:08 2023, MaxMem=  4294967296 cpu:               1.1 elap:               0.2
 (Enter /opt/gaussian/gdv-20210302-j15/gdv/l303.exe)
 DipDrv:  MaxL=1.
 Leave Link  303 at Wed Nov  8 11:44:08 2023, MaxMem=  4294967296 cpu:               0.1 elap:               0.1
 (Enter /opt/gaussian/gdv-20210302-j15/gdv/l308.exe)
 Leave Link  308 at Wed Nov  8 11:44:08 2023, MaxMem=  4294967296 cpu:               0.2 elap:               0.1
 (Enter /opt/gaussian/gdv-20210302-j15/gdv/l401.exe)
 ExpMin= 1.61D-01 ExpMax= 5.48D+03 ExpMxC= 8.25D+02 IAcc=3 IRadAn=         5 AccDes= 0.00D+00
 Harris functional with IExCor= 4002 and IRadAn=       5 diagonalized for initial guess.
 HarFok:  IExCor=    4002 AccDes= 0.00D+00 IRadAn=         5 IDoV= 1 UseB2=F ITyADJ=14 ICtDFT=  3500011
 FoFCou: FMM=F IPFlag=           0 FMFlag=      100000 FMFlg1=           0
         NFxFlg=           0 DoJE=T BraDBF=F KetDBF=T FulRan=T
         wScrn=  0.000000 ICntrl=       500 IOpCl=  0 I1Cent=   200000004 NGrid=           0
         NMat0=    1 NMatS0=      1 NMatT0=    0 NMatD0=    1 NMtDS0=    0 NMtDT0=    0
 Petite list used in FoFCou.
 Harris En= -114.474597771754    
 JPrj=0 DoOrth=F DoCkMO=F.
 Initial guess orbital symmetries:
       Occupied  (A1) (A1) (A1) (A1) (B2) (A1) (B1) (B2)
       Virtual   (B1) (A1) (B2) (A1) (B1) (A1) (B2) (A1) (A1) (B2)
                 (B1) (A1) (B2) (A1)
 The electronic state of the initial guess is 1-A1.
 Leave Link  401 at Wed Nov  8 11:44:09 2023, MaxMem=  4294967296 cpu:               2.5 elap:               0.3
 (Enter /opt/gaussian/gdv-20210302-j15/gdv/l502.exe)
 Keep J ints in memory in symmetry-blocked form, NReq=10407395.
 FoFCou: FMM=F IPFlag=           0 FMFlag=           0 FMFlg1=           0
         NFxFlg=           0 DoJE=F BraDBF=F KetDBF=F FulRan=T
         wScrn=  0.000000 ICntrl=       600 IOpCl=  0 I1Cent=           0 NGrid=           0
         NMat0=    1 NMatS0=    253 NMatT0=    0 NMatD0=    1 NMtDS0=    0 NMtDT0=    0
 Petite list used in FoFCou.
 Closed shell SCF:
 Using DIIS extrapolation, IDIIS=  1040.
 NGot=  4294967296 LenX=  4294954023 LenY=  4294953098
 Requested convergence on RMS density matrix=1.00D-08 within 128 cycles.
 Requested convergence on MAX density matrix=1.00D-06.
 Requested convergence on             energy=1.00D-06.
 No special actions if energy rises.
 Integral accuracy reduced to 1.0D-05 until final iterations.

 Cycle   1  Pass 0  IDiag  1:
 E= -114.380461933202    
 DIIS: error= 5.99D-02 at cycle   1 NSaved=   1.
 NSaved= 1 IEnMin= 1 EnMin= -114.380461933202     IErMin= 1 ErrMin= 5.99D-02
 ErrMax= 5.99D-02  0.00D+00 EMaxC= 1.00D-01 BMatC= 5.93D-02 BMatP= 5.93D-02
 IDIUse=3 WtCom= 4.01D-01 WtEn= 5.99D-01
 Coeff-Com:  0.100D+01
 Coeff-En:   0.100D+01
 Coeff:      0.100D+01
 Gap=     0.057 Goal=   None    Shift=    0.000
 GapD=    0.057 DampG=0.500 DampE=0.500 DampFc=0.2500 IDamp=-1.
 Damping current iteration by 2.50D-01
 RMSDP=4.97D-02 MaxDP=2.88D-01              OVMax= 3.99D-01

 Cycle   2  Pass 0  IDiag  1:
 E= -114.392924248672     Delta-E=       -0.012462315470 Rises=F Damp=T
 DIIS: error= 1.27D-02 at cycle   2 NSaved=   2.
 NSaved= 2 IEnMin= 2 EnMin= -114.392924248672     IErMin= 2 ErrMin= 1.27D-02
 ErrMax= 1.27D-02  0.00D+00 EMaxC= 1.00D-01 BMatC= 3.50D-03 BMatP= 5.93D-02
 IDIUse=3 WtCom= 8.73D-01 WtEn= 1.27D-01
 Coeff-Com: -0.506D-03 0.100D+01
 Coeff-En:   0.327D+00 0.673D+00
 Coeff:      0.412D-01 0.959D+00
 Gap=     0.105 Goal=   None    Shift=    0.000
 RMSDP=6.18D-03 MaxDP=3.74D-02 DE=-1.25D-02 OVMax= 3.15D-01

 Cycle   3  Pass 0  IDiag  1:
 E= -114.430775898238     Delta-E=       -0.037851649566 Rises=F Damp=F
 DIIS: error= 1.37D-02 at cycle   3 NSaved=   3.
 NSaved= 3 IEnMin= 3 EnMin= -114.430775898238     IErMin= 2 ErrMin= 1.27D-02
 ErrMax= 1.37D-02  0.00D+00 EMaxC= 1.00D-01 BMatC= 3.15D-03 BMatP= 3.50D-03
 IDIUse=3 WtCom= 8.63D-01 WtEn= 1.37D-01
 Coeff-Com: -0.104D-01 0.495D+00 0.515D+00
 Coeff-En:   0.000D+00 0.000D+00 0.100D+01
 Coeff:     -0.895D-02 0.427D+00 0.582D+00
 Gap=     0.126 Goal=   None    Shift=    0.000
 RMSDP=3.40D-03 MaxDP=2.22D-02 DE=-3.79D-02 OVMax= 2.67D-02

 Cycle   4  Pass 0  IDiag  1:
 E= -114.433957600783     Delta-E=       -0.003181702545 Rises=F Damp=F
 DIIS: error= 4.61D-03 at cycle   4 NSaved=   4.
 NSaved= 4 IEnMin= 4 EnMin= -114.433957600783     IErMin= 4 ErrMin= 4.61D-03
 ErrMax= 4.61D-03  0.00D+00 EMaxC= 1.00D-01 BMatC= 3.77D-04 BMatP= 3.15D-03
 IDIUse=3 WtCom= 9.54D-01 WtEn= 4.61D-02
 Coeff-Com:  0.232D-01 0.541D-01 0.259D+00 0.664D+00
 Coeff-En:   0.000D+00 0.000D+00 0.389D-01 0.961D+00
 Coeff:      0.221D-01 0.516D-01 0.249D+00 0.677D+00
 Gap=     0.129 Goal=   None    Shift=    0.000
 RMSDP=8.28D-04 MaxDP=5.81D-03 DE=-3.18D-03 OVMax= 7.96D-03

 Cycle   5  Pass 0  IDiag  1:
 E= -114.434342852913     Delta-E=       -0.000385252130 Rises=F Damp=F
 DIIS: error= 2.93D-04 at cycle   5 NSaved=   5.
 NSaved= 5 IEnMin= 5 EnMin= -114.434342852913     IErMin= 5 ErrMin= 2.93D-04
 ErrMax= 2.93D-04  0.00D+00 EMaxC= 1.00D-01 BMatC= 1.19D-06 BMatP= 3.77D-04
 IDIUse=3 WtCom= 9.97D-01 WtEn= 2.93D-03
 Coeff-Com:  0.591D-02 0.202D-02 0.341D-01 0.139D+00 0.819D+00
 Coeff-En:   0.000D+00 0.000D+00 0.000D+00 0.000D+00 0.100D+01
 Coeff:      0.590D-02 0.202D-02 0.340D-01 0.139D+00 0.819D+00
 Gap=     0.128 Goal=   None    Shift=    0.000
 RMSDP=9.93D-05 MaxDP=5.58D-04 DE=-3.85D-04 OVMax= 5.29D-04

 Cycle   6  Pass 0  IDiag  1:
 E= -114.434344401424     Delta-E=       -0.000001548511 Rises=F Damp=F
 DIIS: error= 4.56D-05 at cycle   6 NSaved=   6.
 NSaved= 6 IEnMin= 6 EnMin= -114.434344401424     IErMin= 6 ErrMin= 4.56D-05
 ErrMax= 4.56D-05  0.00D+00 EMaxC= 1.00D-01 BMatC= 1.92D-08 BMatP= 1.19D-06
 IDIUse=1 WtCom= 1.00D+00 WtEn= 0.00D+00
 Coeff-Com: -0.476D-04 0.116D-03 0.319D-03 0.836D-02 0.102D+00 0.890D+00
 Coeff:     -0.476D-04 0.116D-03 0.319D-03 0.836D-02 0.102D+00 0.890D+00
 Gap=     0.128 Goal=   None    Shift=    0.000
 RMSDP=9.82D-06 MaxDP=4.52D-05 DE=-1.55D-06 OVMax= 9.49D-05

 Initial convergence to 1.0D-05 achieved.  Increase integral accuracy.
 Cycle   7  Pass 1  IDiag  1:
 E= -114.434345066133     Delta-E=       -0.000000664709 Rises=F Damp=F
 DIIS: error= 6.85D-07 at cycle   1 NSaved=   1.
 NSaved= 1 IEnMin= 1 EnMin= -114.434345066133     IErMin= 1 ErrMin= 6.85D-07
 ErrMax= 6.85D-07  0.00D+00 EMaxC= 1.00D-01 BMatC= 1.30D-11 BMatP= 1.30D-11
 IDIUse=1 WtCom= 1.00D+00 WtEn= 0.00D+00
 Coeff-Com:  0.100D+01
 Coeff:      0.100D+01
 Gap=     0.128 Goal=   None    Shift=    0.000
 RMSDP=9.82D-06 MaxDP=4.52D-05 DE=-6.65D-07 OVMax= 2.26D-06

 Cycle   8  Pass 1  IDiag  1:
 E= -114.434345066143     Delta-E=       -0.000000000010 Rises=F Damp=F
 DIIS: error= 6.24D-07 at cycle   2 NSaved=   2.
 NSaved= 2 IEnMin= 2 EnMin= -114.434345066143     IErMin= 2 ErrMin= 6.24D-07
 ErrMax= 6.24D-07  0.00D+00 EMaxC= 1.00D-01 BMatC= 9.45D-12 BMatP= 1.30D-11
 IDIUse=1 WtCom= 1.00D+00 WtEn= 0.00D+00
 Coeff-Com:  0.451D+00 0.549D+00
 Coeff:      0.451D+00 0.549D+00
 Gap=     0.128 Goal=   None    Shift=    0.000
 RMSDP=2.33D-07 MaxDP=1.28D-06 DE=-9.72D-12 OVMax= 1.73D-06

 Cycle   9  Pass 1  IDiag  1:
 E= -114.434345066147     Delta-E=       -0.000000000004 Rises=F Damp=F
 DIIS: error= 6.49D-07 at cycle   3 NSaved=   3.
 NSaved= 3 IEnMin= 3 EnMin= -114.434345066147     IErMin= 2 ErrMin= 6.24D-07
 ErrMax= 6.49D-07  0.00D+00 EMaxC= 1.00D-01 BMatC= 5.64D-12 BMatP= 9.45D-12
 IDIUse=1 WtCom= 1.00D+00 WtEn= 0.00D+00
 Coeff-Com:  0.177D+00 0.413D+00 0.410D+00
 Coeff:      0.177D+00 0.413D+00 0.410D+00
 Gap=     0.128 Goal=   None    Shift=    0.000
 RMSDP=1.10D-07 MaxDP=8.86D-07 DE=-4.15D-12 OVMax= 1.58D-06

 Cycle  10  Pass 1  IDiag  1:
 E= -114.434345066150     Delta-E=       -0.000000000003 Rises=F Damp=F
 DIIS: error= 2.99D-07 at cycle   4 NSaved=   4.
 NSaved= 4 IEnMin= 4 EnMin= -114.434345066150     IErMin= 4 ErrMin= 2.99D-07
 ErrMax= 2.99D-07  0.00D+00 EMaxC= 1.00D-01 BMatC= 1.23D-12 BMatP= 5.64D-12
 IDIUse=1 WtCom= 1.00D+00 WtEn= 0.00D+00
 Coeff-Com:  0.139D-01 0.165D+00 0.340D+00 0.481D+00
 Coeff:      0.139D-01 0.165D+00 0.340D+00 0.481D+00
 Gap=     0.128 Goal=   None    Shift=    0.000
 RMSDP=3.45D-08 MaxDP=2.91D-07 DE=-3.18D-12 OVMax= 5.24D-07

 Cycle  11  Pass 1  IDiag  1:
 E= -114.434345066152     Delta-E=       -0.000000000001 Rises=F Damp=F
 DIIS: error= 5.91D-09 at cycle   5 NSaved=   5.
 NSaved= 5 IEnMin= 5 EnMin= -114.434345066152     IErMin= 5 ErrMin= 5.91D-09
 ErrMax= 5.91D-09  0.00D+00 EMaxC= 1.00D-01 BMatC= 6.60D-16 BMatP= 1.23D-12
 IDIUse=1 WtCom= 1.00D+00 WtEn= 0.00D+00
 Coeff-Com:  0.169D-05 0.240D-01 0.611D-01 0.830D-01 0.832D+00
 Coeff:      0.169D-05 0.240D-01 0.611D-01 0.830D-01 0.832D+00
 Gap=     0.128 Goal=   None    Shift=    0.000
 RMSDP=2.81D-09 MaxDP=1.30D-08 DE=-1.19D-12 OVMax= 1.87D-08

 SCF Done:  E(RB-LYP) =  -114.434345066     A.U. after   11 cycles
            NFock= 11  Conv=0.28D-08     -V/T= 2.0043
 KE= 1.139408788681D+02 PE=-3.311619479723D+02 EE= 7.155590181581D+01
 Leave Link  502 at Wed Nov  8 11:44:09 2023, MaxMem=  4294967296 cpu:               2.3 elap:               0.3
 (Enter /opt/gaussian/gdv-20210302-j15/gdv/l601.exe)
 Copying SCF densities to generalized density rwf, IOpCl= 0 IROHF=0.

 **********************************************************************

            Population analysis using the SCF Density.

 **********************************************************************

 Orbital symmetries:
       Occupied  (A1) (A1) (A1) (A1) (B2) (A1) (B1) (B2)
       Virtual   (B1) (A1) (B2) (A1) (B1) (A1) (B2) (A1) (B2) (A1)
                 (B1) (A1) (B2) (A1)
 The electronic state is 1-A1.
 Alpha  occ. eigenvalues --      -18.81466     -10.01535      -0.97779      -0.57241      -0.45099
 Alpha  occ. eigenvalues --       -0.37580      -0.35347      -0.21011
 Alpha virt. eigenvalues --       -0.08167       0.08263       0.15563       0.19013       0.46724
 Alpha virt. eigenvalues --        0.58548       0.59632       0.65841       0.82610       0.84413
 Alpha virt. eigenvalues --        0.89757       0.90184       1.06241       1.54849
          Condensed to atoms (all electrons):
               1          2          3          4
     1  C    4.811609   0.491303   0.304095   0.304095
     2  O    0.491303   7.949571  -0.069677  -0.069677
     3  H    0.304095  -0.069677   0.767365  -0.108092
     4  H    0.304095  -0.069677  -0.108092   0.767365
 Mulliken charges:
               1
     1  C    0.088900
     2  O   -0.301520
     3  H    0.106310
     4  H    0.106310
 Sum of Mulliken charges =   0.00000
 Mulliken charges with hydrogens summed into heavy atoms:
               1
     1  C    0.301520
     2  O   -0.301520
 Electronic spatial extent (au):  <R**2>=             60.3242
 Charge=              0.0000 electrons
 Dipole moment (field-independent basis, Debye):
    X=             -0.0000    Y=              0.0000    Z=             -2.2350  Tot=              2.2350
 Quadrupole moment (field-independent basis, Debye-Ang):
   XX=            -11.3978   YY=            -11.5042   ZZ=            -12.4563
   XY=              0.0000   XZ=              0.0000   YZ=             -0.0000
 Traceless Quadrupole moment (field-independent basis, Debye-Ang):
   XX=              0.3883   YY=              0.2819   ZZ=             -0.6702
   XY=              0.0000   XZ=              0.0000   YZ=             -0.0000
 Octapole moment (field-independent basis, Debye-Ang**2):
  XXX=              0.0000  YYY=              0.0000  ZZZ=              1.0771  XYY=              0.0000
  XXY=              0.0000  XXZ=              0.9740  XZZ=              0.0000  YZZ=             -0.0000
  YYZ=              0.1144  XYZ=             -0.0000
 Hexadecapole moment (field-independent basis, Debye-Ang**3):
 XXXX=             -9.2016 YYYY=            -17.9464 ZZZZ=            -44.4595 XXXY=             -0.0000
 XXXZ=             -0.0000 YYYX=             -0.0000 YYYZ=             -0.0000 ZZZX=             -0.0000
 ZZZY=              0.0000 XXYY=             -4.6954 XXZZ=             -8.8301 YYZZ=            -10.3535
 XXYZ=             -0.0000 YYXZ=             -0.0000 ZZXY=             -0.0000
 N-N= 3.123082222225D+01 E-N=-3.311619477838D+02  KE= 1.139408788681D+02
 Symmetry A1   KE= 1.034734769905D+02
 Symmetry A2   KE= 0.000000000000D+00
 Symmetry B1   KE= 3.639934102506D+00
 Symmetry B2   KE= 6.827467775162D+00
 No NMR shielding tensors so no spin-rotation constants.
 Leave Link  601 at Wed Nov  8 11:44:09 2023, MaxMem=  4294967296 cpu:               1.7 elap:               0.2
 (Enter /opt/gaussian/gdv-20210302-j15/gdv/l9999.exe)
 Unable to Open any file for archive entry.
 1\1\GINC-NODE03\SP\RBLYP\6-31G\C1H2O1\ABOVILL\08-Nov-2023\0\\#P 6-31G 
 blyp geom=modela output=mat\\formaldehyde dipole check\\0,1\C\O,1,1.22
 \H,1,1.08,2,120.\H,1,1.08,2,120.,3,180.,0\\Version=ES64L-GDVRevJ.15\St
 ate=1-A1\HF=-114.4343451\RMSD=2.811e-09\Dipole=0.,0.,-0.8793294\Quadru
 pole=0.2095808,0.2887065,-0.4982874,0.,0.,0.\PG=C02V [C2(C1O1),SGV(H2)
 ]\\@
 The archive entry for this job was punched.


 WHAT, THEN, IS TIME?  IF NO ONE ASKS ME, I KNOW WHAT IT IS.
 IF I WISH TO EXPLAIN WHAT IT IS TO HIM WHO ASKS ME, I DO NOT KNOW.
                                   -- ST. AUGUSTINE (FIFTH CENTURY)

 Writing WrtUnf unformatted file "form_dipole.mat"
 Gaussian matrix elements                                         Version   3 NLab=11 I4Labs=F I2Labs=F
 WrtUnf:  Initial coordinates match /B/.
 Write SHELL TO ATOM MAP                   from file      0 offset           0 length                  10 to matrix element file.
 Write SHELL TYPES                         from file      0 offset           0 length                  10 to matrix element file.
 Write NUMBER OF PRIMITIVES PER SHELL      from file      0 offset           0 length                  10 to matrix element file.
 Write PRIMITIVE EXPONENTS                 from file      0 offset           0 length                  28 to matrix element file.
 Write CONTRACTION COEFFICIENTS            from file      0 offset           0 length                  28 to matrix element file.
 Write P(S=P) CONTRACTION COEFFICIENTS     from file      0 offset           0 length                  28 to matrix element file.
 Write COORDINATES OF EACH SHELL           from file      0 offset           0 length                  30 to matrix element file.
 Write BONDS PER ATOM                      from file      0 offset           0 length                   4 to matrix element file.
 Write BONDED ATOMS                        from file      0 offset           0 length                   6 to matrix element file.
 Write BOND TYPES                          from file      0 offset           0 length                   6 to matrix element file.
 Write ONIOM CHARGE/MULT                   from file      0 offset           0 length                  32 to matrix element file.
 Write ONIOM ATOM LAYERS                   from file      0 offset           0 length                   4 to matrix element file.
 Write ONIOM ATOM MODIFIERS                from file      0 offset           0 length                   4 to matrix element file.
 Write ONIOM ATOM TYPES                    from file      0 offset           0 length                   4 to matrix element file.
 Write ONIOM LINK ATOMS                    from file      0 offset           0 length                   4 to matrix element file.
 Write ONIOM LINK CHARGES                  from file      0 offset           0 length                   4 to matrix element file.
 Write ONIOM LINK DISTANCES                from file      0 offset           0 length                  16 to matrix element file.
 Write SYMINF INTS                         from file      0 offset           0 length                  26 to matrix element file.
 Write ROTTR TO SO                         from file      0 offset           0 length                  12 to matrix element file.
 Write TITLE                               from file      0 offset           0 length                   4 to matrix element file.
 Write ROUTE                               from file      0 offset           0 length                   5 to matrix element file.
 Write INFO1-9                             from file      0 offset           0 length                   9 to matrix element file.
 Write METHOD                              from file      0 offset           0 length                   1 to matrix element file.
 Write BASIS NAME                          from file      0 offset           0 length                   1 to matrix element file.
 Write GAUSSIAN SCALARS                    from file    501 offset           0 to matrix element file.
 Write OPTIMIZATION FLAGS                  from file      0 offset           0 length                   4 to matrix element file.
 Write INTEGER ISO                         from file      0 offset           0 length                   4 to matrix element file.
 Write INTEGER SPIN                        from file      0 offset           0 length                   4 to matrix element file.
 Write REAL ZEFFECTIVE                     from file      0 offset           0 length                   4 to matrix element file.
 Write REAL GFACTOR                        from file      0 offset           0 length                   4 to matrix element file.
 Write REAL ZNUCLEAR                       from file      0 offset           0 length                   4 to matrix element file.
 Write MULLIKEN CHARGES                    from file      0 offset           0 length                   4 to matrix element file.
 Write NUCLEAR GRADIENT                    from file      0 offset           0 length                  12 to matrix element file.
 Write NON-ADIABATIC COUPLING              from file      0 offset           0 length                  12 to matrix element file.
 Write ELECTRIC DIPOLE MOMENT              from file      0 offset           0 length                   3 to matrix element file.
 Write QUADRUPOLE MOMENT                   from file      0 offset           0 length                   6 to matrix element file.
 Write QEQ COUPLING TENSORS                from file      0 offset           0 length                  24 to matrix element file.
 Write HARM CONSTRAINT C and FC            from file      0 offset           0 length                  24 to matrix element file.
 Write FINITE EM FIELD                     from file 100521 offset           0 length                 105 to matrix element file.
 Write OVERLAP                             from file 100514 offset           0 length                 253 to matrix element file.
 Write CORE HAMILTONIAN ALPHA              from file 100515 offset           0 length                 253 to matrix element file.
 Write CORE HAMILTONIAN BETA               from file 100515 offset         253 length                 253 to matrix element file.
 Write KINETIC ENERGY                      from file 100516 offset           0 length                 253 to matrix element file.
 Write ORTHOGONAL BASIS                    from file 100685 offset           0 length                 484 to matrix element file.
 Write DIPOLE INTEGRALS                    from file 100518 offset           0 length                 759 to matrix element file.
 Write DIP VEL INTEGRALS                   from file 100572 offset           0 length                 759 to matrix element file.
 Write R X DEL INTEGRALS                   from file 100572 offset         759 length                 759 to matrix element file.
 Write ALPHA ORBITAL ENERGIES              from file      0 offset           0 length                  22 to matrix element file.
 Write ALPHA MO COEFFICIENTS               from file 100524 offset           0 length                 484 to matrix element file.
 Write ALPHA DENSITY MATRIX                from file      0 offset           0 length                 253 to matrix element file.
 Write ALPHA FOCK MATRIX                   from file 100536 offset           0 length                 253 to matrix element file.
 Write ENERGY-WEIGHTED DENSITY             from file 100571 offset           0 length                 253 to matrix element file.
 Write ALPHA SCF DENSITY MATRIX            from file      0 offset           0 length                 253 to matrix element file.
 No 2e integrals to process.
 Job cpu time:       0 days  0 hours  0 minutes  8.8 seconds.
 Elapsed time:       0 days  0 hours  0 minutes  1.7 seconds.
 File lengths (MBytes):  RWF=      6 Int=      0 D2E=      0 Chk=      2 Scr=      1
 Normal termination of Gaussian DV at Wed Nov  8 11:44:10 2023.
