************************************************************
This is node14.cluster of cluster Pinconning.
Date: Tue Dec 12 11:39:09 PST 2023
************************************************************
 Set GAUSS_MDEF to "32GB".
 Set GAUSS_PDEF to "12".
 Entering Gaussian System, Link 0=gdv
 Initial command:
 /opt/gaussian/gdv-20210302-j15/gdv/l1.exe "/tmp/896878.1.allnodes.q/Gau-32375.inp" -scrdir="/tmp/896878.1.allnodes.q/"
 Default is to use a total of  12 processors:
                               12 via shared-memory
                                1 via Linda
 Entering Link 1 = /opt/gaussian/gdv-20210302-j15/gdv/l1.exe PID=     32376.
  
 Copyright (c) 1988-2021, Gaussian, Inc.  All Rights Reserved.
  
 This is the private, development version of
 the Gaussian(R) DV system of programs. It is based on
 the Gaussian(R) 16 system (copyright 2016, Gaussian, Inc.),
 the Gaussian(R) 09 system (copyright 2009, Gaussian, Inc.),
 the Gaussian(R) 03 system (copyright 2003, Gaussian, Inc.),
 the Gaussian(R) 98 system (copyright 1998, Gaussian, Inc.),
 the Gaussian(R) 94 system (copyright 1995, Gaussian, Inc.),
 the Gaussian 92(TM) system (copyright 1992, Gaussian, Inc.),
 the Gaussian 90(TM) system (copyright 1990, Gaussian, Inc.),
 the Gaussian 88(TM) system (copyright 1988, Gaussian, Inc.),
 the Gaussian 86(TM) system (copyright 1986, Carnegie Mellon
 University), and the Gaussian 82(TM) system (copyright 1983,
 Carnegie Mellon University). Gaussian is a federally registered
 trademark of Gaussian, Inc.
  
 This software contains proprietary and confidential information,
 including trade secrets, belonging to Gaussian, Inc.
  
 This software is provided under written license and may be
 used, copied, transmitted, or stored only in accord with that
 written license.
  
 The following legend is applicable only to US Government
 contracts under FAR:
  
                    RESTRICTED RIGHTS LEGEND
  
 Use, reproduction and disclosure by the US Government is
 subject to restrictions as set forth in subparagraphs (a)
 and (c) of the Commercial Computer Software - Restricted
 Rights clause in FAR 52.227-19.
  
 Gaussian, Inc.
 340 Quinnipiac St., Bldg. 40, Wallingford CT 06492
  
  
 ---------------------------------------------------------------
 Warning -- This program may not be used in any manner that
 competes with the business of Gaussian, Inc. or will provide
 assistance to any competitor of Gaussian, Inc.  The licensee
 of this program is prohibited from giving any competitor of
 Gaussian, Inc. access to this program.  By using this program,
 the user acknowledges that Gaussian, Inc. is engaged in the
 business of creating and licensing software in the field of
 computational chemistry and represents and warrants to the
 licensee that it is not a competitor of Gaussian, Inc. and that
 it will not use this program in any manner prohibited above.
 ---------------------------------------------------------------
  

 Cite this work as:
 Gaussian Development Version, Revision J.15,
 M. J. Frisch, G. W. Trucks, H. B. Schlegel, G. E. Scuseria, 
 M. A. Robb, J. R. Cheeseman, G. Scalmani, V. Barone, 
 G. A. Petersson, H. Nakatsuji, X. Li, A. V. Marenich, M. Caricato, 
 J. Bloino, B. G. Janesko, J. Zheng, R. Gomperts, B. Mennucci, 
 H. P. Hratchian, J. V. Ortiz, A. F. Izmaylov, J. L. Sonnenberg, 
 D. Williams-Young, F. Ding, F. Lipparini, F. Egidi, J. Goings, 
 B. Peng, A. Petrone, T. Henderson, D. Ranasinghe, V. G. Zakrzewski, 
 J. Gao, N. Rega, G. Zheng, W. Liang, M. Hada, M. Ehara, K. Toyota, 
 R. Fukuda, J. Hasegawa, M. Ishida, T. Nakajima, Y. Honda, O. Kitao, 
 H. Nakai, T. Vreven, K. Throssell, J. A. Montgomery, Jr., 
 J. E. Peralta, F. Ogliaro, M. J. Bearpark, J. J. Heyd, 
 E. N. Brothers, K. N. Kudin, V. N. Staroverov, T. A. Keith, 
 R. Kobayashi, J. Normand, K. Raghavachari, A. P. Rendell, 
 J. C. Burant, S. S. Iyengar, J. Tomasi, M. Cossi, J. M. Millam, 
 M. Klene, C. Adamo, R. Cammi, J. W. Ochterski, R. L. Martin, 
 K. Morokuma, O. Farkas, J. B. Foresman, and D. J. Fox, 
 Gaussian, Inc., Wallingford CT, 2020.
 
 ******************************************
 Gaussian DV:  ES64L-GDVRevJ.15 23-Feb-2021
                12-Dec-2023 
 ******************************************
 %chk=h2o_dipole.chk
 ----------------------------------------------------------------------
 #p ublyp geom=modela 6-31G output=(mat,AO2ElectronIntegrals) int=noraf
 f
 ----------------------------------------------------------------------
 1/29=4,37=210000000,38=1,172=1/1;
 2/12=2/2;
 3/5=1,6=6,25=20,28=1,30=1,74=4002,116=2/1,2,3,8,20;
 4//1;
 5/5=1,29=1/2;
 6/7=2,8=2,9=2,10=2,28=1/1;
 99/5=1,6=100000,9=1/99;
 Leave Link    1 at Tue Dec 12 11:39:09 2023, MaxMem=           0 cpu:               0.2 elap:               0.1
 (Enter /opt/gaussian/gdv-20210302-j15/gdv/l101.exe)
 ----------------
 h2o dipole check
 ----------------
 Charge =  0 Multiplicity = 1
 Model A used to generate z-matrix:
 Short formula matrix:
   Atom   Symbol  Geom  Angle Array F
    1        O    Bent         2   3
    2        H                 1   0
    3        H                 1   0
 Generated Z-Matrix:
 O
 H,1,R2
 H,1,R2,2,A3
      Variables:
 R2=0.96
 A3=109.47122063
     1 tetrahedral angles replaced.
 ITRead=  0  0  0
 MicOpt= -1 -1 -1
 NAtoms=      3 NQM=        3 NQMF=       0 NMMI=      0 NMMIF=      0
                NMic=       0 NMicF=      0.
    1 tetrahedral angles replaced.
                    Isotopes and Nuclear Properties:
 (Nuclear quadrupole moments (NQMom) in fm**2, nuclear magnetic moments (NMagM)
  in nuclear magnetons)

  Atom         1           2           3
 IAtWgt=          16           1           1
 AtmWgt=  15.9949146   1.0078250   1.0078250
 NucSpn=           0           1           1
 AtZEff=  -0.0000000  -0.0000000  -0.0000000
 NQMom=    0.0000000   0.0000000   0.0000000
 NMagM=    0.0000000   2.7928460   2.7928460
 AtZNuc=   8.0000000   1.0000000   1.0000000
 Leave Link  101 at Tue Dec 12 11:39:09 2023, MaxMem=  4294967296 cpu:               0.4 elap:               0.3
 (Enter /opt/gaussian/gdv-20210302-j15/gdv/l202.exe)
                          Input orientation:                          
 ---------------------------------------------------------------------
 Center     Atomic      Atomic             Coordinates (Angstroms)
 Number     Number       Type             X           Y           Z
 ---------------------------------------------------------------------
      1          8           0        0.000000    0.000000   -0.000000
      2          1           0        0.000000   -0.000000    0.960000
      3          1           0        0.905097    0.000000   -0.320000
 ---------------------------------------------------------------------
                    Distance matrix (angstroms):
                    1          2          3
     1  O    0.000000
     2  H    0.960000   0.000000
     3  H    0.960000   1.567673   0.000000
 Stoichiometry    H2O
 Framework group  C2V[C2(O),SGV(H2)]
 Deg. of freedom     2
 Full point group                 C2V     NOp   4
 Largest Abelian subgroup         C2V     NOp   4
 Largest concise Abelian subgroup C2      NOp   2
                         Standard orientation:                         
 ---------------------------------------------------------------------
 Center     Atomic      Atomic             Coordinates (Angstroms)
 Number     Number       Type             X           Y           Z
 ---------------------------------------------------------------------
      1          8           0        0.000000    0.000000    0.110851
      2          1           0        0.000000    0.783837   -0.443405
      3          1           0       -0.000000   -0.783837   -0.443405
 ---------------------------------------------------------------------
 Rotational constants (GHZ):         919.0227301         408.0852087         282.5991554
 Leave Link  202 at Tue Dec 12 11:39:09 2023, MaxMem=  4294967296 cpu:               0.1 elap:               0.1
 (Enter /opt/gaussian/gdv-20210302-j15/gdv/l301.exe)
 Standard basis: 6-31G (6D, 7F)
 Ernie: Thresh=  0.10000D-02 Tol=  0.10000D-05 Strict=F.
 There are     7 symmetry adapted cartesian basis functions of A1  symmetry.
 There are     0 symmetry adapted cartesian basis functions of A2  symmetry.
 There are     2 symmetry adapted cartesian basis functions of B1  symmetry.
 There are     4 symmetry adapted cartesian basis functions of B2  symmetry.
 There are     7 symmetry adapted basis functions of A1  symmetry.
 There are     0 symmetry adapted basis functions of A2  symmetry.
 There are     2 symmetry adapted basis functions of B1  symmetry.
 There are     4 symmetry adapted basis functions of B2  symmetry.
    13 basis functions,    30 primitive gaussians,    13 cartesian basis functions
     5 alpha electrons        5 beta electrons
       nuclear repulsion energy         9.1571759503 Hartrees.
 IExCor=    4002 DFT=T Ex=B Corr=LYP N6=None ScaHFX=  0.000000
 ScaDFX=  1.000000  1.000000  1.000000  1.000000  1.000000  0.000000
 ScaDFX=  0.000000  0.000000  0.000000  0.000000  0.000000  0.000000
 IRadAn=      5 IRanWt=     -1 IRanGd=            0 ICorTp=0 IEmpDi=  4
 NAtoms=    3 NActive=    3 NUniq=    2 SFac= 2.25D+00 NAtFMM=   60 NAOKFM=F Big=F
 Integral buffers will be    131072 words long.
 Regular integral format.
 Two-electron integral symmetry is turned on.
 Leave Link  301 at Tue Dec 12 11:39:09 2023, MaxMem=  4294967296 cpu:               0.2 elap:               0.1
 (Enter /opt/gaussian/gdv-20210302-j15/gdv/l302.exe)
 NPDir=0 NMtPBC=     1 NCelOv=     1 NCel=       1 NClECP=     1 NCelD=      1
         NCelK=      1 NCelE2=     1 NClLst=     1 CellRange=     0.0.
 One-electron integrals computed using PRISM.
 One-electron integral symmetry used in STVInt
 NBasis=    13 RedAO= T EigKep=  6.95D-02  NBF=     7     0     2     4
 NBsUse=    13 1.00D-06 EigRej= -1.00D+00 NBFU=     7     0     2     4
 Precomputing XC quadrature grid using
 IXCGrd= 4 IRadAn=           5 IRanWt=          -1 IRanGd=           0 AccXCQ= 0.00D+00.
 Generated NRdTot=       0 NPtTot=       68213 NUsed=           0 NTot=          64
 NSgBfM=    13    13    13    13    13 MxSgAt=     3 MxSgA2=     3 SizInc=   0.000
 NMBTot=      618 MaxBatPerAtom=       81 MaxMicBPerAtom=      211 NBfPt=              763524.
 Leave Link  302 at Tue Dec 12 11:39:10 2023, MaxMem=  4294967296 cpu:               0.9 elap:               0.2
 (Enter /opt/gaussian/gdv-20210302-j15/gdv/l303.exe)
 DipDrv:  MaxL=1.
 Leave Link  303 at Tue Dec 12 11:39:10 2023, MaxMem=  4294967296 cpu:               0.1 elap:               0.1
 (Enter /opt/gaussian/gdv-20210302-j15/gdv/l308.exe)
 Leave Link  308 at Tue Dec 12 11:39:10 2023, MaxMem=  4294967296 cpu:               0.1 elap:               0.1
 (Enter /opt/gaussian/gdv-20210302-j15/gdv/l320.exe)
 Enter DskPsm, NBasis=  13 NBas6D=  13 NShell=   7 IDoSP=4 IDer=0 ISMode=0.
 Out2e will use a cutoff of  1.00D-10
 FoFCou: FMM=F IPFlag=           0 FMFlag=           0 FMFlg1=           0
         NFxFlg=           0 DoJE=F BraDBF=F KetDBF=F FulRan=T
         wScrn=  0.000000 ICntrl=       600 IOpCl=  9 I1Cent=           0 NGrid=           0
         NMat0=    0 NMatS0=      0 NMatT0=    0 NMatD0=    0 NMtDS0=    0 NMtDT0=    0
 Petite list used in FoFCou.
         1282 integrals produced for a total of         1282.
 Leave Link  320 at Tue Dec 12 11:39:10 2023, MaxMem=  4294967296 cpu:               0.5 elap:               0.1
 (Enter /opt/gaussian/gdv-20210302-j15/gdv/l401.exe)
 ExpMin= 1.61D-01 ExpMax= 5.48D+03 ExpMxC= 8.25D+02 IAcc=3 IRadAn=         5 AccDes= 0.00D+00
 Harris functional with IExCor= 4002 and IRadAn=       5 diagonalized for initial guess.
 HarFok:  IExCor=    4002 AccDes= 0.00D+00 IRadAn=         5 IDoV= 1 UseB2=F ITyADJ=14 ICtDFT=  3500011
 FoFCou: FMM=F IPFlag=           0 FMFlag=      100000 FMFlg1=           0
         NFxFlg=           0 DoJE=T BraDBF=F KetDBF=T FulRan=T
         wScrn=  0.000000 ICntrl=       500 IOpCl=  0 I1Cent=   200000004 NGrid=           0
         NMat0=    1 NMatS0=      1 NMatT0=    0 NMatD0=    1 NMtDS0=    0 NMtDT0=    0
 Petite list used in FoFCou.
 Harris En= -76.4354838485429    
 JPrj=0 DoOrth=F DoCkMO=F.
 Initial guess orbital symmetries:
 Alpha Orbitals:
       Occupied  (A1) (A1) (B2) (A1) (B1)
       Virtual   (A1) (B2) (A1) (B1) (B2) (A1) (B2) (A1)
 Beta  Orbitals:
       Occupied  (A1) (A1) (B2) (A1) (B1)
       Virtual   (A1) (B2) (A1) (B1) (B2) (A1) (B2) (A1)
 The electronic state of the initial guess is 1-A1.
 Initial guess <Sx>= 0.0000 <Sy>= 0.0000 <Sz>= 0.0000 <S**2>=-0.0000 S=-0.0000
 Leave Link  401 at Tue Dec 12 11:39:10 2023, MaxMem=  4294967296 cpu:               1.3 elap:               0.2
 (Enter /opt/gaussian/gdv-20210302-j15/gdv/l502.exe)
 Integral symmetry usage will be decided dynamically.
 UHF open shell SCF:
 Using DIIS extrapolation, IDIIS=  1040.
 NGot=  4294967296 LenX=  4294703269 LenY=  4294702387
 Requested convergence on RMS density matrix=1.00D-08 within 128 cycles.
 Requested convergence on MAX density matrix=1.00D-06.
 Requested convergence on             energy=1.00D-06.
 No special actions if energy rises.

 Cycle   1  Pass 1  IDiag  1:
 E= -76.2816170820874    
 DIIS: error= 9.33D-02 at cycle   1 NSaved=   1.
 NSaved= 1 IEnMin= 1 EnMin= -76.2816170820874     IErMin= 1 ErrMin= 9.33D-02
 ErrMax= 9.33D-02  0.00D+00 EMaxC= 1.00D-01 BMatC= 4.31D-01 BMatP= 4.31D-01
 IDIUse=3 WtCom= 6.66D-02 WtEn= 9.33D-01
 Coeff-Com:  0.100D+01
 Coeff-En:   0.100D+01
 Coeff:      0.100D+01
 Gap=     0.099 Goal=   None    Shift=    0.000
 Gap=     0.099 Goal=   None    Shift=    0.000
 GapD=    0.099 DampG=0.500 DampE=0.500 DampFc=0.2500 IDamp=-1.
 Damping current iteration by 2.50D-01
 RMSDP=5.72D-02 MaxDP=2.98D-01              OVMax= 2.43D-01

 Cycle   2  Pass 1  IDiag  1:
 E= -76.3128728238353     Delta-E=       -0.031255741748 Rises=F Damp=T
 DIIS: error= 3.00D-02 at cycle   2 NSaved=   2.
 NSaved= 2 IEnMin= 2 EnMin= -76.3128728238353     IErMin= 2 ErrMin= 3.00D-02
 ErrMax= 3.00D-02  0.00D+00 EMaxC= 1.00D-01 BMatC= 3.82D-02 BMatP= 4.31D-01
 IDIUse=3 WtCom= 7.00D-01 WtEn= 3.00D-01
 Coeff-Com: -0.410D+00 0.141D+01
 Coeff-En:   0.000D+00 0.100D+01
 Coeff:     -0.287D+00 0.129D+01
 Gap=     0.229 Goal=   None    Shift=    0.000
 Gap=     0.229 Goal=   None    Shift=    0.000
 RMSDP=8.45D-03 MaxDP=3.97D-02 DE=-3.13D-02 OVMax= 1.62D-01

 Cycle   3  Pass 1  IDiag  1:
 E= -76.3636579203839     Delta-E=       -0.050785096549 Rises=F Damp=F
 DIIS: error= 1.29D-02 at cycle   3 NSaved=   3.
 NSaved= 3 IEnMin= 3 EnMin= -76.3636579203839     IErMin= 3 ErrMin= 1.29D-02
 ErrMax= 1.29D-02  0.00D+00 EMaxC= 1.00D-01 BMatC= 9.16D-03 BMatP= 3.82D-02
 IDIUse=3 WtCom= 8.71D-01 WtEn= 1.29D-01
 Coeff-Com:  0.223D+00-0.250D+00 0.103D+01
 Coeff-En:   0.000D+00 0.000D+00 0.100D+01
 Coeff:      0.194D+00-0.218D+00 0.102D+01
 Gap=     0.255 Goal=   None    Shift=    0.000
 Gap=     0.255 Goal=   None    Shift=    0.000
 RMSDP=2.75D-03 MaxDP=1.27D-02 DE=-5.08D-02 OVMax= 1.30D-02

 Cycle   4  Pass 1  IDiag  1:
 E= -76.3652555930126     Delta-E=       -0.001597672629 Rises=F Damp=F
 DIIS: error= 2.15D-03 at cycle   4 NSaved=   4.
 NSaved= 4 IEnMin= 4 EnMin= -76.3652555930126     IErMin= 4 ErrMin= 2.15D-03
 ErrMax= 2.15D-03  0.00D+00 EMaxC= 1.00D-01 BMatC= 2.62D-04 BMatP= 9.16D-03
 IDIUse=3 WtCom= 9.79D-01 WtEn= 2.15D-02
 Coeff-Com: -0.303D-02 0.807D-02 0.140D+00 0.855D+00
 Coeff-En:   0.000D+00 0.000D+00 0.000D+00 0.100D+01
 Coeff:     -0.296D-02 0.790D-02 0.137D+00 0.858D+00
 Gap=     0.254 Goal=   None    Shift=    0.000
 Gap=     0.254 Goal=   None    Shift=    0.000
 RMSDP=3.99D-04 MaxDP=1.88D-03 DE=-1.60D-03 OVMax= 1.85D-03

 Cycle   5  Pass 1  IDiag  1:
 E= -76.3653022347320     Delta-E=       -0.000046641719 Rises=F Damp=F
 DIIS: error= 6.01D-05 at cycle   5 NSaved=   5.
 NSaved= 5 IEnMin= 5 EnMin= -76.3653022347320     IErMin= 5 ErrMin= 6.01D-05
 ErrMax= 6.01D-05  0.00D+00 EMaxC= 1.00D-01 BMatC= 2.28D-07 BMatP= 2.62D-04
 IDIUse=1 WtCom= 1.00D+00 WtEn= 0.00D+00
 Coeff-Com:  0.856D-03-0.146D-02 0.866D-02 0.611D-01 0.931D+00
 Coeff:      0.856D-03-0.146D-02 0.866D-02 0.611D-01 0.931D+00
 Gap=     0.254 Goal=   None    Shift=    0.000
 Gap=     0.254 Goal=   None    Shift=    0.000
 RMSDP=9.20D-06 MaxDP=5.14D-05 DE=-4.66D-05 OVMax= 3.55D-05

 Cycle   6  Pass 1  IDiag  1:
 E= -76.3653022738248     Delta-E=       -0.000000039093 Rises=F Damp=F
 DIIS: error= 5.02D-06 at cycle   6 NSaved=   6.
 NSaved= 6 IEnMin= 6 EnMin= -76.3653022738248     IErMin= 6 ErrMin= 5.02D-06
 ErrMax= 5.02D-06  0.00D+00 EMaxC= 1.00D-01 BMatC= 1.27D-09 BMatP= 2.28D-07
 IDIUse=1 WtCom= 1.00D+00 WtEn= 0.00D+00
 Coeff-Com:  0.238D-03-0.350D-03 0.450D-03 0.304D-02 0.137D+00 0.860D+00
 Coeff:      0.238D-03-0.350D-03 0.450D-03 0.304D-02 0.137D+00 0.860D+00
 Gap=     0.254 Goal=   None    Shift=    0.000
 Gap=     0.254 Goal=   None    Shift=    0.000
 RMSDP=1.10D-06 MaxDP=4.83D-06 DE=-3.91D-08 OVMax= 5.77D-06

 Cycle   7  Pass 1  IDiag  1:
 E= -76.3653022740808     Delta-E=       -0.000000000256 Rises=F Damp=F
 DIIS: error= 8.06D-07 at cycle   7 NSaved=   7.
 NSaved= 7 IEnMin= 7 EnMin= -76.3653022740808     IErMin= 7 ErrMin= 8.06D-07
 ErrMax= 8.06D-07  0.00D+00 EMaxC= 1.00D-01 BMatC= 3.41D-11 BMatP= 1.27D-09
 IDIUse=1 WtCom= 1.00D+00 WtEn= 0.00D+00
 Coeff-Com:  0.311D-04-0.436D-04-0.909D-04-0.767D-03 0.986D-02-0.695D-01
 Coeff-Com:  0.106D+01
 Coeff:      0.311D-04-0.436D-04-0.909D-04-0.767D-03 0.986D-02-0.695D-01
 Coeff:      0.106D+01
 Gap=     0.254 Goal=   None    Shift=    0.000
 Gap=     0.254 Goal=   None    Shift=    0.000
 RMSDP=1.77D-07 MaxDP=8.69D-07 DE=-2.56D-10 OVMax= 8.30D-07

 Cycle   8  Pass 1  IDiag  1:
 E= -76.3653022740876     Delta-E=       -0.000000000007 Rises=F Damp=F
 DIIS: error= 1.21D-07 at cycle   8 NSaved=   8.
 NSaved= 8 IEnMin= 8 EnMin= -76.3653022740876     IErMin= 8 ErrMin= 1.21D-07
 ErrMax= 1.21D-07  0.00D+00 EMaxC= 1.00D-01 BMatC= 7.17D-13 BMatP= 3.41D-11
 IDIUse=1 WtCom= 1.00D+00 WtEn= 0.00D+00
 Coeff-Com:  0.128D-06-0.147D-07-0.844D-05-0.524D-04-0.219D-04-0.302D-01
 Coeff-Com:  0.512D-01 0.979D+00
 Coeff:      0.128D-06-0.147D-07-0.844D-05-0.524D-04-0.219D-04-0.302D-01
 Coeff:      0.512D-01 0.979D+00
 Gap=     0.254 Goal=   None    Shift=    0.000
 Gap=     0.254 Goal=   None    Shift=    0.000
 RMSDP=3.18D-08 MaxDP=1.41D-07 DE=-6.79D-12 OVMax= 1.68D-07

 Cycle   9  Pass 1  IDiag  1:
 E= -76.3653022740878     Delta-E=       -0.000000000000 Rises=F Damp=F
 DIIS: error= 8.39D-11 at cycle   9 NSaved=   9.
 NSaved= 9 IEnMin= 9 EnMin= -76.3653022740878     IErMin= 9 ErrMin= 8.39D-11
 ErrMax= 8.39D-11  0.00D+00 EMaxC= 1.00D-01 BMatC= 3.11D-19 BMatP= 7.17D-13
 IDIUse=1 WtCom= 1.00D+00 WtEn= 0.00D+00
 Coeff-Com: -0.110D-08 0.328D-08-0.353D-07-0.191D-06 0.157D-06-0.308D-03
 Coeff-Com:  0.551D-03 0.869D-02 0.991D+00
 Coeff:     -0.110D-08 0.328D-08-0.353D-07-0.191D-06 0.157D-06-0.308D-03
 Coeff:      0.551D-03 0.869D-02 0.991D+00
 Gap=     0.254 Goal=   None    Shift=    0.000
 Gap=     0.254 Goal=   None    Shift=    0.000
 RMSDP=2.17D-11 MaxDP=7.27D-11 DE=-1.85D-13 OVMax= 1.23D-10

 SCF Done:  E(UB-LYP) =  -76.3653022741     A.U. after    9 cycles
            NFock=  9  Conv=0.22D-10     -V/T= 2.0040
 <Sx>= 0.0000 <Sy>= 0.0000 <Sz>= 0.0000 <S**2>=-0.0000 S=-0.0000
 <L.S>=  0.00000000000    
 KE= 7.606012225231D+01 PE=-1.990645345450D+02 EE= 3.748193406827D+01
 Annihilation of the first spin contaminant:
 S**2 before annihilation    -0.0000,   after    -0.0000
 Leave Link  502 at Tue Dec 12 11:39:10 2023, MaxMem=  4294967296 cpu:               1.7 elap:               0.2
 (Enter /opt/gaussian/gdv-20210302-j15/gdv/l601.exe)
 Copying SCF densities to generalized density rwf, IOpCl= 1 IROHF=0.

 **********************************************************************

            Population analysis using the SCF Density.

 **********************************************************************

 Orbital symmetries:
 Alpha Orbitals:
       Occupied  (A1) (A1) (B2) (A1) (B1)
       Virtual   (A1) (B2) (B2) (A1) (B1) (A1) (B2) (A1)
 Beta  Orbitals:
       Occupied  (A1) (A1) (B2) (A1) (B1)
       Virtual   (A1) (B2) (B2) (A1) (B1) (A1) (B2) (A1)
 The electronic state is 1-A1.
 Alpha  occ. eigenvalues --      -18.77458      -0.91289      -0.47677      -0.27979      -0.22188
 Alpha virt. eigenvalues --        0.03180       0.12036       0.78506       0.80366       0.83725
 Alpha virt. eigenvalues --        0.89039       1.01602       1.35472
  Beta  occ. eigenvalues --      -18.77458      -0.91289      -0.47677      -0.27979      -0.22188
  Beta virt. eigenvalues --        0.03180       0.12036       0.78506       0.80366       0.83725
  Beta virt. eigenvalues --        0.89039       1.01602       1.35472
          Condensed to atoms (all electrons):
               1          2          3
     1  O    8.203551   0.241029   0.241029
     2  H    0.241029   0.452071  -0.035903
     3  H    0.241029  -0.035903   0.452071
          Atomic-Atomic Spin Densities.
               1          2          3
     1  O    0.000000   0.000000   0.000000
     2  H    0.000000   0.000000   0.000000
     3  H    0.000000   0.000000   0.000000
 Mulliken charges and spin densities:
               1          2
     1  O   -0.685608   0.000000
     2  H    0.342804   0.000000
     3  H    0.342804   0.000000
 Sum of Mulliken charges =  -0.00000   0.00000
 Mulliken charges and spin densities with hydrogens summed into heavy atoms:
               1          2
     1  O   -0.000000   0.000000
 Electronic spatial extent (au):  <R**2>=             19.2374
 Charge=             -0.0000 electrons
 Dipole moment (field-independent basis, Debye):
    X=             -0.0000    Y=             -0.0000    Z=             -2.3111  Tot=              2.3111
 Quadrupole moment (field-independent basis, Debye-Ang):
   XX=             -7.1677   YY=             -4.1609   ZZ=             -6.2833
   XY=              0.0000   XZ=              0.0000   YZ=             -0.0000
 Traceless Quadrupole moment (field-independent basis, Debye-Ang):
   XX=             -1.2970   YY=              1.7097   ZZ=             -0.4127
   XY=              0.0000   XZ=              0.0000   YZ=             -0.0000
 Octapole moment (field-independent basis, Debye-Ang**2):
  XXX=              0.0000  YYY=              0.0000  ZZZ=             -1.1959  XYY=             -0.0000
  XXY=              0.0000  XXZ=             -0.3541  XZZ=              0.0000  YZZ=             -0.0000
  YYZ=             -1.0697  XYZ=             -0.0000
 Hexadecapole moment (field-independent basis, Debye-Ang**3):
 XXXX=             -5.1684 YYYY=             -6.1352 ZZZZ=             -6.2649 XXXY=             -0.0000
 XXXZ=             -0.0000 YYYX=             -0.0000 YYYZ=             -0.0000 ZZZX=             -0.0000
 ZZZY=             -0.0000 XXYY=             -2.1214 XXZZ=             -1.9412 YYZZ=             -1.8483
 XXYZ=             -0.0000 YYXZ=              0.0000 ZZXY=             -0.0000
 N-N= 9.157175950298D+00 E-N=-1.990645345469D+02  KE= 7.606012225231D+01
 Symmetry A1   KE= 6.790240805127D+01
 Symmetry A2   KE= 0.000000000000D+00
 Symmetry B1   KE= 4.608858212801D+00
 Symmetry B2   KE= 3.548855988238D+00
 Symmetry A1   SP= 0.000000000000D+00
 Symmetry A2   SP= 0.000000000000D+00
 Symmetry B1   SP= 0.000000000000D+00
 Symmetry B2   SP= 0.000000000000D+00
                          Isotropic Fermi Contact Couplings
        Atom                 a.u.       MegaHertz       Gauss      10(-4) cm-1
     1  O(17)              0.00000      -0.00000      -0.00000      -0.00000
     2  H(1)               0.00000       0.00000       0.00000       0.00000
     3  H(1)               0.00000       0.00000       0.00000       0.00000
 --------------------------------------------------------
       Center         ----  Spin Dipole Couplings  ----
                      3XX-RR        3YY-RR        3ZZ-RR
 --------------------------------------------------------
     1   Atom        0.000000      0.000000      0.000000
     2   Atom        0.000000      0.000000      0.000000
     3   Atom        0.000000      0.000000      0.000000
 --------------------------------------------------------
                        XY            XZ            YZ
 --------------------------------------------------------
     1   Atom        0.000000      0.000000      0.000000
     2   Atom        0.000000      0.000000      0.000000
     3   Atom        0.000000      0.000000      0.000000
 --------------------------------------------------------


 ---------------------------------------------------------------------------------
              Anisotropic Spin Dipole Couplings in Principal Axis System
 ---------------------------------------------------------------------------------

       Atom             a.u.   MegaHertz   Gauss  10(-4) cm-1        Axes

              Baa     0.0000    -0.000    -0.000    -0.000  1.0000  0.0000  0.0000
     1 O(17)  Bbb     0.0000    -0.000    -0.000    -0.000 -0.0000  1.0000  0.0000
              Bcc     0.0000    -0.000    -0.000    -0.000  0.0000  0.0000  1.0000
 
              Baa     0.0000     0.000     0.000     0.000  1.0000  0.0000  0.0000
     2 H(1)   Bbb     0.0000     0.000     0.000     0.000 -0.0000  1.0000  0.0000
              Bcc     0.0000     0.000     0.000     0.000  0.0000  0.0000  1.0000
 
              Baa     0.0000     0.000     0.000     0.000  1.0000  0.0000  0.0000
     3 H(1)   Bbb     0.0000     0.000     0.000     0.000 -0.0000  1.0000  0.0000
              Bcc     0.0000     0.000     0.000     0.000  0.0000  0.0000  1.0000
 

 ---------------------------------------------------------------------------------

 No NMR shielding tensors so no spin-rotation constants.
 Leave Link  601 at Tue Dec 12 11:39:10 2023, MaxMem=  4294967296 cpu:               0.9 elap:               0.1
 (Enter /opt/gaussian/gdv-20210302-j15/gdv/l9999.exe)
 Unable to Open any file for archive entry.
 1\1\GINC-NODE14\SP\UBLYP\6-31G\H2O1\ABOVILL\12-Dec-2023\0\\#p ublyp ge
 om=modela 6-31G output=(mat,AO2ElectronIntegrals) int=noraff\\h2o dipo
 le check\\0,1\O\H,1,0.96\H,1,0.96,2,109.47122063\\Version=ES64L-GDVRev
 J.15\State=1-A1\HF=-76.3653023\S2=0.\S2-1=0.\S2A=0.\RMSD=2.173e-11\Dip
 ole=0.7424126,0.,0.524965\Quadrupole=0.2191748,-0.9643205,0.7451458,0.
 ,-0.7438353,0.\PG=C02V [C2(O1),SGV(H2)]\\@
 The archive entry for this job was punched.


 Until you make peace with who you are,
 you'll never be content with what you have.
                           -- Doris Mortman

 Writing WrtUnf unformatted file "h2o_dipole_basis.mat"
 Gaussian matrix elements                                         Version   3 NLab=11 I4Labs=F I2Labs=F
 WrtUnf:  Initial coordinates match /B/.
 Write SHELL TO ATOM MAP                   from file      0 offset           0 length                   7 to matrix element file.
 Write SHELL TYPES                         from file      0 offset           0 length                   7 to matrix element file.
 Write NUMBER OF PRIMITIVES PER SHELL      from file      0 offset           0 length                   7 to matrix element file.
 Write PRIMITIVE EXPONENTS                 from file      0 offset           0 length                  18 to matrix element file.
 Write CONTRACTION COEFFICIENTS            from file      0 offset           0 length                  18 to matrix element file.
 Write P(S=P) CONTRACTION COEFFICIENTS     from file      0 offset           0 length                  18 to matrix element file.
 Write COORDINATES OF EACH SHELL           from file      0 offset           0 length                  21 to matrix element file.
 Write BONDS PER ATOM                      from file      0 offset           0 length                   3 to matrix element file.
 Write BONDED ATOMS                        from file      0 offset           0 length                   4 to matrix element file.
 Write BOND TYPES                          from file      0 offset           0 length                   4 to matrix element file.
 Write ONIOM CHARGE/MULT                   from file      0 offset           0 length                  32 to matrix element file.
 Write ONIOM ATOM LAYERS                   from file      0 offset           0 length                   3 to matrix element file.
 Write ONIOM ATOM MODIFIERS                from file      0 offset           0 length                   3 to matrix element file.
 Write ONIOM ATOM TYPES                    from file      0 offset           0 length                   3 to matrix element file.
 Write ONIOM LINK ATOMS                    from file      0 offset           0 length                   3 to matrix element file.
 Write ONIOM LINK CHARGES                  from file      0 offset           0 length                   3 to matrix element file.
 Write ONIOM LINK DISTANCES                from file      0 offset           0 length                  12 to matrix element file.
 Write SYMINF INTS                         from file      0 offset           0 length                  26 to matrix element file.
 Write ROTTR TO SO                         from file      0 offset           0 length                  12 to matrix element file.
 Write TITLE                               from file      0 offset           0 length                   2 to matrix element file.
 Write ROUTE                               from file      0 offset           0 length                   9 to matrix element file.
 Write INFO1-9                             from file      0 offset           0 length                   9 to matrix element file.
 Write METHOD                              from file      0 offset           0 length                   1 to matrix element file.
 Write BASIS NAME                          from file      0 offset           0 length                   1 to matrix element file.
 Write GAUSSIAN SCALARS                    from file    501 offset           0 to matrix element file.
 Write OPTIMIZATION FLAGS                  from file      0 offset           0 length                   3 to matrix element file.
 Write INTEGER ISO                         from file      0 offset           0 length                   3 to matrix element file.
 Write INTEGER SPIN                        from file      0 offset           0 length                   3 to matrix element file.
 Write REAL ZEFFECTIVE                     from file      0 offset           0 length                   3 to matrix element file.
 Write REAL GFACTOR                        from file      0 offset           0 length                   3 to matrix element file.
 Write REAL ZNUCLEAR                       from file      0 offset           0 length                   3 to matrix element file.
 Write MULLIKEN CHARGES                    from file      0 offset           0 length                   3 to matrix element file.
 Write NUCLEAR GRADIENT                    from file      0 offset           0 length                   9 to matrix element file.
 Write NON-ADIABATIC COUPLING              from file      0 offset           0 length                   9 to matrix element file.
 Write ELECTRIC DIPOLE MOMENT              from file      0 offset           0 length                   3 to matrix element file.
 Write QUADRUPOLE MOMENT                   from file      0 offset           0 length                   6 to matrix element file.
 Write ANISOTROPIC HYPERFINE TENSORS       from file      0 offset           0 length                  18 to matrix element file.
 Write ISOTROPIC HYPERFINE SPLITTINGS      from file      0 offset           0 length                   3 to matrix element file.
 Write QEQ COUPLING TENSORS                from file      0 offset           0 length                  18 to matrix element file.
 Write HARM CONSTRAINT C and FC            from file      0 offset           0 length                  18 to matrix element file.
 Write FINITE EM FIELD                     from file 100521 offset           0 length                 105 to matrix element file.
 Write OVERLAP                             from file 100514 offset           0 length                  91 to matrix element file.
 Write CORE HAMILTONIAN ALPHA              from file 100515 offset           0 length                  91 to matrix element file.
 Write CORE HAMILTONIAN BETA               from file 100515 offset          91 length                  91 to matrix element file.
 Write KINETIC ENERGY                      from file 100516 offset           0 length                  91 to matrix element file.
 Write ORTHOGONAL BASIS                    from file 100685 offset           0 length                 169 to matrix element file.
 Write DIPOLE INTEGRALS                    from file 100518 offset           0 length                 273 to matrix element file.
 Write DIP VEL INTEGRALS                   from file 100572 offset           0 length                 273 to matrix element file.
 Write R X DEL INTEGRALS                   from file 100572 offset         273 length                 273 to matrix element file.
 Write ALPHA ORBITAL ENERGIES              from file      0 offset           0 length                  13 to matrix element file.
 Write BETA ORBITAL ENERGIES               from file      0 offset           0 length                  13 to matrix element file.
 Write ALPHA MO COEFFICIENTS               from file 100524 offset           0 length                 169 to matrix element file.
 Write BETA MO COEFFICIENTS                from file 100526 offset           0 length                 169 to matrix element file.
 Write ALPHA DENSITY MATRIX                from file      0 offset           0 length                  91 to matrix element file.
 Write BETA DENSITY MATRIX                 from file      0 offset           0 length                  91 to matrix element file.
 Write ALPHA FOCK MATRIX                   from file 100536 offset           0 length                  91 to matrix element file.
 Write BETA FOCK MATRIX                    from file 100538 offset           0 length                  91 to matrix element file.
 Write ENERGY-WEIGHTED DENSITY             from file 100571 offset           0 length                  91 to matrix element file.
 Write ALPHA SCF DENSITY MATRIX            from file      0 offset           0 length                  91 to matrix element file.
 Write BETA SCF DENSITY MATRIX             from file      0 offset           0 length                  91 to matrix element file.
 Write REGULAR 2E INTEGRALS                to matrix element file, NR=1 ITotal=        1282.
 Job cpu time:       0 days  0 hours  0 minutes  6.8 seconds.
 Elapsed time:       0 days  0 hours  0 minutes  1.7 seconds.
 File lengths (MBytes):  RWF=      6 Int=      1 D2E=      0 Chk=      2 Scr=      1
 Normal termination of Gaussian DV at Tue Dec 12 11:39:11 2023.
