************************************************************
This is node06.cluster of cluster Pinconning.
Date: Fri Jan 19 18:09:39 PST 2024
************************************************************
 Set GAUSS_MDEF to "32GB".
 Set GAUSS_PDEF to "12".
 Entering Gaussian System, Link 0=gdv
 Initial command:
 /opt/gaussian/gdv-20210302-j15/gdv/l1.exe "/tmp/897653.1.allnodes.q/Gau-8097.inp" -scrdir="/tmp/897653.1.allnodes.q/"
 Default is to use a total of  12 processors:
                               12 via shared-memory
                                1 via Linda
 Entering Link 1 = /opt/gaussian/gdv-20210302-j15/gdv/l1.exe PID=      8098.
  
 Copyright (c) 1988-2021, Gaussian, Inc.  All Rights Reserved.
  
 This is the private, development version of
 the Gaussian(R) DV system of programs. It is based on
 the Gaussian(R) 16 system (copyright 2016, Gaussian, Inc.),
 the Gaussian(R) 09 system (copyright 2009, Gaussian, Inc.),
 the Gaussian(R) 03 system (copyright 2003, Gaussian, Inc.),
 the Gaussian(R) 98 system (copyright 1998, Gaussian, Inc.),
 the Gaussian(R) 94 system (copyright 1995, Gaussian, Inc.),
 the Gaussian 92(TM) system (copyright 1992, Gaussian, Inc.),
 the Gaussian 90(TM) system (copyright 1990, Gaussian, Inc.),
 the Gaussian 88(TM) system (copyright 1988, Gaussian, Inc.),
 the Gaussian 86(TM) system (copyright 1986, Carnegie Mellon
 University), and the Gaussian 82(TM) system (copyright 1983,
 Carnegie Mellon University). Gaussian is a federally registered
 trademark of Gaussian, Inc.
  
 This software contains proprietary and confidential information,
 including trade secrets, belonging to Gaussian, Inc.
  
 This software is provided under written license and may be
 used, copied, transmitted, or stored only in accord with that
 written license.
  
 The following legend is applicable only to US Government
 contracts under FAR:
  
                    RESTRICTED RIGHTS LEGEND
  
 Use, reproduction and disclosure by the US Government is
 subject to restrictions as set forth in subparagraphs (a)
 and (c) of the Commercial Computer Software - Restricted
 Rights clause in FAR 52.227-19.
  
 Gaussian, Inc.
 340 Quinnipiac St., Bldg. 40, Wallingford CT 06492
  
  
 ---------------------------------------------------------------
 Warning -- This program may not be used in any manner that
 competes with the business of Gaussian, Inc. or will provide
 assistance to any competitor of Gaussian, Inc.  The licensee
 of this program is prohibited from giving any competitor of
 Gaussian, Inc. access to this program.  By using this program,
 the user acknowledges that Gaussian, Inc. is engaged in the
 business of creating and licensing software in the field of
 computational chemistry and represents and warrants to the
 licensee that it is not a competitor of Gaussian, Inc. and that
 it will not use this program in any manner prohibited above.
 ---------------------------------------------------------------
  

 Cite this work as:
 Gaussian Development Version, Revision J.15,
 M. J. Frisch, G. W. Trucks, H. B. Schlegel, G. E. Scuseria, 
 M. A. Robb, J. R. Cheeseman, G. Scalmani, V. Barone, 
 G. A. Petersson, H. Nakatsuji, X. Li, A. V. Marenich, M. Caricato, 
 J. Bloino, B. G. Janesko, J. Zheng, R. Gomperts, B. Mennucci, 
 H. P. Hratchian, J. V. Ortiz, A. F. Izmaylov, J. L. Sonnenberg, 
 D. Williams-Young, F. Ding, F. Lipparini, F. Egidi, J. Goings, 
 B. Peng, A. Petrone, T. Henderson, D. Ranasinghe, V. G. Zakrzewski, 
 J. Gao, N. Rega, G. Zheng, W. Liang, M. Hada, M. Ehara, K. Toyota, 
 R. Fukuda, J. Hasegawa, M. Ishida, T. Nakajima, Y. Honda, O. Kitao, 
 H. Nakai, T. Vreven, K. Throssell, J. A. Montgomery, Jr., 
 J. E. Peralta, F. Ogliaro, M. J. Bearpark, J. J. Heyd, 
 E. N. Brothers, K. N. Kudin, V. N. Staroverov, T. A. Keith, 
 R. Kobayashi, J. Normand, K. Raghavachari, A. P. Rendell, 
 J. C. Burant, S. S. Iyengar, J. Tomasi, M. Cossi, J. M. Millam, 
 M. Klene, C. Adamo, R. Cammi, J. W. Ochterski, R. L. Martin, 
 K. Morokuma, O. Farkas, J. B. Foresman, and D. J. Fox, 
 Gaussian, Inc., Wallingford CT, 2020.
 
 ******************************************
 Gaussian DV:  ES64L-GDVRevJ.15 23-Feb-2021
                19-Jan-2024 
 ******************************************
 %chk=nh3_dipole.chk
 ---------------------------------------------------------------
 #p uhf geom=modela output=(mat,AO2ElectronIntegrals) int=noraff
 ---------------------------------------------------------------
 1/29=4,37=210000000,38=1,172=1/1;
 2/12=2/2;
 3/25=20,28=1,30=1,116=2/1,2,3,8,20;
 4//1;
 5/5=1,29=1/2;
 6/7=2,8=2,9=2,10=2,28=1/1;
 99/5=1,6=100000,9=1/99;
 Leave Link    1 at Fri Jan 19 18:09:39 2024, MaxMem=           0 cpu:               0.2 elap:               0.1
 (Enter /opt/gaussian/gdv-20210302-j15/gdv/l101.exe)
 ----------------
 nh3 dipole check
 ----------------
 Charge =  0 Multiplicity = 1
 Model A used to generate z-matrix:
 Short formula matrix:
   Atom   Symbol  Geom  Angle   Array F
    1        N    Pyra         2   3   4
    2        H                 1   0   0
    3        H                 1   0   0
    4        H                 1   0   0
 Generated Z-Matrix:
 N
 H,1,R2
 H,1,R2,2,A3
 H,1,R2,2,A3,3,D4,0
      Variables:
 R2=1.01
 A3=109.47122063
 D4=120.
 Generated  3 variables but there are only  2 degrees of freedom.
     2 tetrahedral angles replaced.
 ITRead=  0  0  0  0
 MicOpt= -1 -1 -1 -1
 NAtoms=      4 NQM=        4 NQMF=       0 NMMI=      0 NMMIF=      0
                NMic=       0 NMicF=      0.
    2 tetrahedral angles replaced.
                    Isotopes and Nuclear Properties:
 (Nuclear quadrupole moments (NQMom) in fm**2, nuclear magnetic moments (NMagM)
  in nuclear magnetons)

  Atom         1           2           3           4
 IAtWgt=          14           1           1           1
 AtmWgt=  14.0030740   1.0078250   1.0078250   1.0078250
 NucSpn=           2           1           1           1
 AtZEff=  -0.0000000  -0.0000000  -0.0000000  -0.0000000
 NQMom=    2.0440000   0.0000000   0.0000000   0.0000000
 NMagM=    0.4037610   2.7928460   2.7928460   2.7928460
 AtZNuc=   7.0000000   1.0000000   1.0000000   1.0000000
 Leave Link  101 at Fri Jan 19 18:09:39 2024, MaxMem=  4294967296 cpu:               0.6 elap:               0.3
 (Enter /opt/gaussian/gdv-20210302-j15/gdv/l202.exe)
                          Input orientation:                          
 ---------------------------------------------------------------------
 Center     Atomic      Atomic             Coordinates (Angstroms)
 Number     Number       Type             X           Y           Z
 ---------------------------------------------------------------------
      1          7           0        0.000000   -0.000000   -0.000000
      2          1           0       -0.000000   -0.000000    1.010000
      3          1           0        0.952237    0.000000   -0.336667
      4          1           0       -0.476119   -0.824662   -0.336667
 ---------------------------------------------------------------------
                    Distance matrix (angstroms):
                    1          2          3          4
     1  N    0.000000
     2  H    1.010000   0.000000
     3  H    1.010000   1.649323   0.000000
     4  H    1.010000   1.649323   1.649323   0.000000
 Stoichiometry    H3N
 Framework group  C3V[C3(N),3SGV(H)]
 Deg. of freedom     2
 Full point group                 C3V     NOp   6
 Largest Abelian subgroup         CS      NOp   2
 Largest concise Abelian subgroup CS      NOp   2
                         Standard orientation:                         
 ---------------------------------------------------------------------
 Center     Atomic      Atomic             Coordinates (Angstroms)
 Number     Number       Type             X           Y           Z
 ---------------------------------------------------------------------
      1          7           0        0.000000    0.000000    0.101000
      2          1           0        0.000000    0.952237   -0.235667
      3          1           0       -0.824662   -0.476119   -0.235667
      4          1           0        0.824662   -0.476119   -0.235667
 ---------------------------------------------------------------------
 Rotational constants (GHZ):         305.8052983         305.8052983         184.3404217
 Leave Link  202 at Fri Jan 19 18:09:39 2024, MaxMem=  4294967296 cpu:               0.2 elap:               0.1
 (Enter /opt/gaussian/gdv-20210302-j15/gdv/l301.exe)
 Standard basis: STO-3G (5D, 7F)
 Ernie: Thresh=  0.10000D-02 Tol=  0.10000D-05 Strict=F.
 There are     6 symmetry adapted cartesian basis functions of A'  symmetry.
 There are     2 symmetry adapted cartesian basis functions of A"  symmetry.
 There are     6 symmetry adapted basis functions of A'  symmetry.
 There are     2 symmetry adapted basis functions of A"  symmetry.
     8 basis functions,    24 primitive gaussians,     8 cartesian basis functions
     5 alpha electrons        5 beta electrons
       nuclear repulsion energy        11.9652297446 Hartrees.
 IExCor=       0 DFT=F Ex=HF Corr=None N6=None ScaHFX=  1.000000
 ScaDFX=  1.000000  1.000000  1.000000  1.000000  1.000000  0.000000
 ScaDFX=  0.000000  0.000000  0.000000  0.000000  0.000000  0.000000
 IRadAn=      5 IRanWt=     -1 IRanGd=            0 ICorTp=0 IEmpDi=  4
 NAtoms=    4 NActive=    4 NUniq=    2 SFac= 4.00D+00 NAtFMM=   60 NAOKFM=F Big=F
 Integral buffers will be    131072 words long.
 Regular integral format.
 Two-electron integral symmetry is turned on.
 Leave Link  301 at Fri Jan 19 18:09:39 2024, MaxMem=  4294967296 cpu:               0.2 elap:               0.1
 (Enter /opt/gaussian/gdv-20210302-j15/gdv/l302.exe)
 NPDir=0 NMtPBC=     1 NCelOv=     1 NCel=       1 NClECP=     1 NCelD=      1
         NCelK=      1 NCelE2=     1 NClLst=     1 CellRange=     0.0.
 One-electron integrals computed using PRISM.
 One-electron integral symmetry used in STVInt
 NBasis=     8 RedAO= T EigKep=  2.69D-01  NBF=     6     2
 NBsUse=     8 1.00D-06 EigRej= -1.00D+00 NBFU=     6     2
 Leave Link  302 at Fri Jan 19 18:09:40 2024, MaxMem=  4294967296 cpu:               1.2 elap:               0.3
 (Enter /opt/gaussian/gdv-20210302-j15/gdv/l303.exe)
 DipDrv:  MaxL=1.
 Leave Link  303 at Fri Jan 19 18:09:40 2024, MaxMem=  4294967296 cpu:               0.3 elap:               0.1
 (Enter /opt/gaussian/gdv-20210302-j15/gdv/l308.exe)
 Leave Link  308 at Fri Jan 19 18:09:40 2024, MaxMem=  4294967296 cpu:               0.3 elap:               0.1
 (Enter /opt/gaussian/gdv-20210302-j15/gdv/l320.exe)
 Enter DskPsm, NBasis=   8 NBas6D=   8 NShell=   5 IDoSP=4 IDer=0 ISMode=0.
 Out2e will use a cutoff of  1.00D-10
 FoFCou: FMM=F IPFlag=           0 FMFlag=           0 FMFlg1=           0
         NFxFlg=           0 DoJE=F BraDBF=F KetDBF=F FulRan=T
         wScrn=  0.000000 ICntrl=       600 IOpCl=  9 I1Cent=           0 NGrid=           0
         NMat0=    0 NMatS0=      0 NMatT0=    0 NMatD0=    0 NMtDS0=    0 NMtDT0=    0
 Petite list used in FoFCou.
          341 integrals produced for a total of          341.
 Leave Link  320 at Fri Jan 19 18:09:40 2024, MaxMem=  4294967296 cpu:               1.0 elap:               0.3
 (Enter /opt/gaussian/gdv-20210302-j15/gdv/l401.exe)
 ExpMin= 1.69D-01 ExpMax= 9.91D+01 ExpMxC= 9.91D+01 IAcc=3 IRadAn=         5 AccDes= 0.00D+00
 Harris functional with IExCor= 2005 and IRadAn=       5 diagonalized for initial guess.
 HarFok:  IExCor=    2005 AccDes= 0.00D+00 IRadAn=         5 IDoV= 1 UseB2=F ITyADJ=14 ICtDFT=  3500011
 FoFCou: FMM=F IPFlag=           0 FMFlag=      100000 FMFlg1=           0
         NFxFlg=           0 DoJE=T BraDBF=F KetDBF=T FulRan=T
         wScrn=  0.000000 ICntrl=       500 IOpCl=  0 I1Cent=   200000004 NGrid=           0
         NMat0=    1 NMatS0=      1 NMatT0=    0 NMatD0=    1 NMtDS0=    0 NMtDT0=    0
 Petite list used in FoFCou.
 Harris En= -55.5585610488653    
 JPrj=0 DoOrth=F DoCkMO=F.
 Initial guess orbital symmetries:
 Alpha Orbitals:
       Occupied  (A1) (A1) (E) (E) (A1)
       Virtual   (A1) (E) (E)
 Beta  Orbitals:
       Occupied  (A1) (A1) (E) (E) (A1)
       Virtual   (A1) (E) (E)
 The electronic state of the initial guess is 1-A1.
 Initial guess <Sx>= 0.0000 <Sy>= 0.0000 <Sz>= 0.0000 <S**2>=-0.0000 S=-0.0000
 Leave Link  401 at Fri Jan 19 18:09:41 2024, MaxMem=  4294967296 cpu:               2.5 elap:               0.6
 (Enter /opt/gaussian/gdv-20210302-j15/gdv/l502.exe)
 Integral symmetry usage will be decided dynamically.
 UHF open shell SCF:
 Using DIIS extrapolation, IDIIS=  1040.
 NGot=  4294967296 LenX=  4294703396 LenY=  4294702514
 Requested convergence on RMS density matrix=1.00D-08 within 128 cycles.
 Requested convergence on MAX density matrix=1.00D-06.
 Requested convergence on             energy=1.00D-06.
 No special actions if energy rises.

 Cycle   1  Pass 1  IDiag  1:
 E= -55.4006094106689    
 DIIS: error= 6.23D-02 at cycle   1 NSaved=   1.
 NSaved= 1 IEnMin= 1 EnMin= -55.4006094106689     IErMin= 1 ErrMin= 6.23D-02
 ErrMax= 6.23D-02  0.00D+00 EMaxC= 1.00D-01 BMatC= 1.75D-01 BMatP= 1.75D-01
 IDIUse=3 WtCom= 3.77D-01 WtEn= 6.23D-01
 Coeff-Com:  0.100D+01
 Coeff-En:   0.100D+01
 Coeff:      0.100D+01
 Gap=     0.907 Goal=   None    Shift=    0.000
 Gap=     0.907 Goal=   None    Shift=    0.000
 GapD=    0.907 DampG=2.000 DampE=0.500 DampFc=1.0000 IDamp=-1.
 RMSDP=3.60D-02 MaxDP=1.25D-01              OVMax= 0.00D+00

 Cycle   2  Pass 1  IDiag  1:
 E= -55.4515240628148     Delta-E=       -0.050914652146 Rises=F Damp=F
 DIIS: error= 8.91D-03 at cycle   2 NSaved=   2.
 NSaved= 2 IEnMin= 2 EnMin= -55.4515240628148     IErMin= 2 ErrMin= 8.91D-03
 ErrMax= 8.91D-03  0.00D+00 EMaxC= 1.00D-01 BMatC= 3.75D-03 BMatP= 1.75D-01
 IDIUse=3 WtCom= 9.11D-01 WtEn= 8.91D-02
 Coeff-Com:  0.957D-01 0.904D+00
 Coeff-En:   0.000D+00 0.100D+01
 Coeff:      0.872D-01 0.913D+00
 Gap=     0.978 Goal=   None    Shift=    0.000
 Gap=     0.978 Goal=   None    Shift=    0.000
 RMSDP=4.65D-03 MaxDP=1.50D-02 DE=-5.09D-02 OVMax= 0.00D+00

 Cycle   3  Pass 1  IDiag  1:
 E= -55.4525189334921     Delta-E=       -0.000994870677 Rises=F Damp=F
 DIIS: error= 7.65D-04 at cycle   3 NSaved=   3.
 NSaved= 3 IEnMin= 3 EnMin= -55.4525189334921     IErMin= 3 ErrMin= 7.65D-04
 ErrMax= 7.65D-04  0.00D+00 EMaxC= 1.00D-01 BMatC= 3.24D-05 BMatP= 3.75D-03
 IDIUse=3 WtCom= 9.92D-01 WtEn= 7.65D-03
 Coeff-Com: -0.125D-01-0.596D-01 0.107D+01
 Coeff-En:   0.000D+00 0.000D+00 0.100D+01
 Coeff:     -0.124D-01-0.592D-01 0.107D+01
 Gap=     0.976 Goal=   None    Shift=    0.000
 Gap=     0.976 Goal=   None    Shift=    0.000
 RMSDP=5.87D-04 MaxDP=1.58D-03 DE=-9.95D-04 OVMax= 0.00D+00

 Cycle   4  Pass 1  IDiag  1:
 E= -55.4525334818159     Delta-E=       -0.000014548324 Rises=F Damp=F
 DIIS: error= 1.69D-04 at cycle   4 NSaved=   4.
 NSaved= 4 IEnMin= 4 EnMin= -55.4525334818159     IErMin= 4 ErrMin= 1.69D-04
 ErrMax= 1.69D-04  0.00D+00 EMaxC= 1.00D-01 BMatC= 1.23D-06 BMatP= 3.24D-05
 IDIUse=3 WtCom= 9.98D-01 WtEn= 1.69D-03
 Coeff-Com:  0.193D-02 0.339D-02-0.283D+00 0.128D+01
 Coeff-En:   0.000D+00 0.000D+00 0.000D+00 0.100D+01
 Coeff:      0.192D-02 0.339D-02-0.282D+00 0.128D+01
 Gap=     0.977 Goal=   None    Shift=    0.000
 Gap=     0.977 Goal=   None    Shift=    0.000
 RMSDP=1.82D-04 MaxDP=6.23D-04 DE=-1.45D-05 OVMax= 0.00D+00

 Cycle   5  Pass 1  IDiag  1:
 E= -55.4525342087315     Delta-E=       -0.000000726916 Rises=F Damp=F
 DIIS: error= 2.69D-05 at cycle   5 NSaved=   5.
 NSaved= 5 IEnMin= 5 EnMin= -55.4525342087315     IErMin= 5 ErrMin= 2.69D-05
 ErrMax= 2.69D-05  0.00D+00 EMaxC= 1.00D-01 BMatC= 2.44D-08 BMatP= 1.23D-06
 IDIUse=1 WtCom= 1.00D+00 WtEn= 0.00D+00
 Coeff-Com: -0.122D-02-0.149D-02 0.180D+00-0.843D+00 0.167D+01
 Coeff:     -0.122D-02-0.149D-02 0.180D+00-0.843D+00 0.167D+01
 Gap=     0.977 Goal=   None    Shift=    0.000
 Gap=     0.977 Goal=   None    Shift=    0.000
 RMSDP=4.56D-05 MaxDP=1.82D-04 DE=-7.27D-07 OVMax= 0.00D+00

 Cycle   6  Pass 1  IDiag  1:
 E= -55.4525342285614     Delta-E=       -0.000000019830 Rises=F Damp=F
 DIIS: error= 1.90D-07 at cycle   6 NSaved=   6.
 NSaved= 6 IEnMin= 6 EnMin= -55.4525342285614     IErMin= 6 ErrMin= 1.90D-07
 ErrMax= 1.90D-07  0.00D+00 EMaxC= 1.00D-01 BMatC= 1.67D-12 BMatP= 2.44D-08
 IDIUse=1 WtCom= 1.00D+00 WtEn= 0.00D+00
 Coeff-Com:  0.125D-05 0.228D-04 0.881D-04-0.190D-02 0.560D-02 0.996D+00
 Coeff:      0.125D-05 0.228D-04 0.881D-04-0.190D-02 0.560D-02 0.996D+00
 Gap=     0.977 Goal=   None    Shift=    0.000
 Gap=     0.977 Goal=   None    Shift=    0.000
 RMSDP=1.22D-07 MaxDP=3.26D-07 DE=-1.98D-08 OVMax= 0.00D+00

 Cycle   7  Pass 1  IDiag  1:
 E= -55.4525342285619     Delta-E=       -0.000000000000 Rises=F Damp=F
 DIIS: error= 4.15D-10 at cycle   7 NSaved=   7.
 NSaved= 7 IEnMin= 7 EnMin= -55.4525342285619     IErMin= 7 ErrMin= 4.15D-10
 ErrMax= 4.15D-10  0.00D+00 EMaxC= 1.00D-01 BMatC= 4.19D-18 BMatP= 1.67D-12
 IDIUse=1 WtCom= 1.00D+00 WtEn= 0.00D+00
 Coeff-Com: -0.240D-10 0.121D-08-0.231D-06 0.190D-05-0.263D-05 0.104D-02
 Coeff-Com:  0.999D+00
 Coeff:     -0.240D-10 0.121D-08-0.231D-06 0.190D-05-0.263D-05 0.104D-02
 Coeff:      0.999D+00
 Gap=     0.977 Goal=   None    Shift=    0.000
 Gap=     0.977 Goal=   None    Shift=    0.000
 RMSDP=2.56D-10 MaxDP=8.94D-10 DE=-4.83D-13 OVMax= 0.00D+00

 SCF Done:  E(UHF) =  -55.4525342286     A.U. after    7 cycles
            NFock=  7  Conv=0.26D-09     -V/T= 2.0062
 <Sx>= 0.0000 <Sy>= 0.0000 <Sz>= 0.0000 <S**2>=-0.0000 S=-0.0000
 <L.S>=  0.00000000000    
 KE= 5.510955209933D+01 PE=-1.541989151957D+02 EE= 3.167159912321D+01
 Annihilation of the first spin contaminant:
 S**2 before annihilation    -0.0000,   after     0.0000
 Leave Link  502 at Fri Jan 19 18:09:41 2024, MaxMem=  4294967296 cpu:               0.5 elap:               0.1
 (Enter /opt/gaussian/gdv-20210302-j15/gdv/l601.exe)
 Copying SCF densities to generalized density rwf, IOpCl= 1 IROHF=0.

 **********************************************************************

            Population analysis using the SCF Density.

 **********************************************************************

 Orbital symmetries:
 Alpha Orbitals:
       Occupied  (A1) (A1) (E) (E) (A1)
       Virtual   (A1) (E) (E)
 Beta  Orbitals:
       Occupied  (A1) (A1) (E) (E) (A1)
       Virtual   (A1) (E) (E)
 The electronic state is 1-A1.
 Alpha  occ. eigenvalues --      -15.29650      -1.08234      -0.57526      -0.57526      -0.34372
 Alpha virt. eigenvalues --        0.63292       0.74500       0.74500
  Beta  occ. eigenvalues --      -15.29650      -1.08234      -0.57526      -0.57526      -0.34372
  Beta virt. eigenvalues --        0.63292       0.74500       0.74500
          Condensed to atoms (all electrons):
               1          2          3          4
     1  N    6.439810   0.346957   0.346957   0.346957
     2  H    0.346957   0.561471  -0.034327  -0.034327
     3  H    0.346957  -0.034327   0.561471  -0.034327
     4  H    0.346957  -0.034327  -0.034327   0.561471
          Atomic-Atomic Spin Densities.
               1          2          3          4
     1  N    0.000000   0.000000   0.000000   0.000000
     2  H    0.000000   0.000000   0.000000   0.000000
     3  H    0.000000   0.000000   0.000000   0.000000
     4  H    0.000000   0.000000   0.000000   0.000000
 Mulliken charges and spin densities:
               1          2
     1  N   -0.480679   0.000000
     2  H    0.160226   0.000000
     3  H    0.160226   0.000000
     4  H    0.160226   0.000000
 Sum of Mulliken charges =  -0.00000   0.00000
 Mulliken charges and spin densities with hydrogens summed into heavy atoms:
               1          2
     1  N   -0.000000   0.000000
 Electronic spatial extent (au):  <R**2>=             24.9303
 Charge=             -0.0000 electrons
 Dipole moment (field-independent basis, Debye):
    X=             -0.0000    Y=             -0.0000    Z=             -1.6479  Tot=              1.6479
 Quadrupole moment (field-independent basis, Debye-Ang):
   XX=             -5.7969   YY=             -5.7969   ZZ=             -7.7291
   XY=             -0.0000   XZ=              0.0000   YZ=              0.0000
 Traceless Quadrupole moment (field-independent basis, Debye-Ang):
   XX=              0.6441   YY=              0.6441   ZZ=             -1.2881
   XY=             -0.0000   XZ=              0.0000   YZ=              0.0000
 Octapole moment (field-independent basis, Debye-Ang**2):
  XXX=             -0.0000  YYY=              0.6648  ZZZ=             -0.6949  XYY=              0.0000
  XXY=             -0.6648  XXZ=             -0.5086  XZZ=              0.0000  YZZ=             -0.0000
  YYZ=             -0.5086  XYZ=              0.0000
 Hexadecapole moment (field-independent basis, Debye-Ang**3):
 XXXX=             -8.8927 YYYY=             -8.8927 ZZZZ=             -6.2631 XXXY=              0.0000
 XXXZ=              0.0000 YYYX=              0.0000 YYYZ=             -0.2277 ZZZX=             -0.0000
 ZZZY=              0.0000 XXYY=             -2.9642 XXZZ=             -2.6047 YYZZ=             -2.6047
 XXYZ=              0.2277 YYXZ=             -0.0000 ZZXY=              0.0000
 N-N= 1.196522974457D+01 E-N=-1.541989151950D+02  KE= 5.510955209933D+01
 Symmetry A'   KE= 5.276119176459D+01
 Symmetry A"   KE= 2.348360334741D+00
 Symmetry A'   SP= 0.000000000000D+00
 Symmetry A"   SP= 0.000000000000D+00
                          Isotropic Fermi Contact Couplings
        Atom                 a.u.       MegaHertz       Gauss      10(-4) cm-1
     1  N(14)              0.00000       0.00000       0.00000       0.00000
     2  H(1)               0.00000       0.00000       0.00000       0.00000
     3  H(1)               0.00000       0.00000       0.00000       0.00000
     4  H(1)               0.00000       0.00000       0.00000       0.00000
 --------------------------------------------------------
       Center         ----  Spin Dipole Couplings  ----
                      3XX-RR        3YY-RR        3ZZ-RR
 --------------------------------------------------------
     1   Atom        0.000000      0.000000      0.000000
     2   Atom        0.000000      0.000000      0.000000
     3   Atom        0.000000      0.000000      0.000000
     4   Atom        0.000000      0.000000      0.000000
 --------------------------------------------------------
                        XY            XZ            YZ
 --------------------------------------------------------
     1   Atom        0.000000      0.000000      0.000000
     2   Atom        0.000000      0.000000      0.000000
     3   Atom        0.000000      0.000000      0.000000
     4   Atom        0.000000      0.000000      0.000000
 --------------------------------------------------------


 ---------------------------------------------------------------------------------
              Anisotropic Spin Dipole Couplings in Principal Axis System
 ---------------------------------------------------------------------------------

       Atom             a.u.   MegaHertz   Gauss  10(-4) cm-1        Axes

              Baa     0.0000     0.000     0.000     0.000  1.0000  0.0000  0.0000
     1 N(14)  Bbb     0.0000     0.000     0.000     0.000 -0.0000  1.0000  0.0000
              Bcc     0.0000     0.000     0.000     0.000  0.0000  0.0000  1.0000
 
              Baa     0.0000     0.000     0.000     0.000  1.0000  0.0000  0.0000
     2 H(1)   Bbb     0.0000     0.000     0.000     0.000 -0.0000  1.0000  0.0000
              Bcc     0.0000     0.000     0.000     0.000  0.0000  0.0000  1.0000
 
              Baa     0.0000     0.000     0.000     0.000  1.0000  0.0000  0.0000
     3 H(1)   Bbb     0.0000     0.000     0.000     0.000 -0.0000  1.0000  0.0000
              Bcc     0.0000     0.000     0.000     0.000  0.0000  0.0000  1.0000
 
              Baa     0.0000     0.000     0.000     0.000  1.0000  0.0000  0.0000
     4 H(1)   Bbb     0.0000     0.000     0.000     0.000 -0.0000  1.0000  0.0000
              Bcc     0.0000     0.000     0.000     0.000  0.0000  0.0000  1.0000
 

 ---------------------------------------------------------------------------------

 No NMR shielding tensors so no spin-rotation constants.
 Leave Link  601 at Fri Jan 19 18:09:41 2024, MaxMem=  4294967296 cpu:               1.9 elap:               0.4
 (Enter /opt/gaussian/gdv-20210302-j15/gdv/l9999.exe)
 Unable to Open any file for archive entry.
 1\1\GINC-NODE06\SP\UHF\STO-3G\H3N1\ABOVILL\19-Jan-2024\0\\#p uhf geom=
 modela output=(mat,AO2ElectronIntegrals) int=noraff\\nh3 dipole check\
 \0,1\N\H,1,1.01\H,1,1.01,2,109.47122063\H,1,1.01,2,109.47122063,3,120.
 ,0\\Version=ES64L-GDVRevJ.15\State=1-A1\HF=-55.4525342\S2=0.\S2-1=0.\S
 2A=0.\RMSD=2.560e-10\Dipole=0.3056315,-0.5293693,0.2161141\Quadrupole=
 0.1596163,-0.4788489,0.3192326,0.5529271,-0.2257315,0.3909785\PG=C03V 
 [C3(N1),3SGV(H1)]\\@
 The archive entry for this job was punched.


 A SLIP OF THE FOOT YOU MAY SOON RECOVER, BUT A SLIP OF THE TONGUE
 YOU MAY NEVER GET OVER. -- BEN FRANKLIN

 Writing WrtUnf unformatted file "nh3_dipole.mat"
 Gaussian matrix elements                                         Version   3 NLab=11 I4Labs=F I2Labs=F
 WrtUnf:  Initial coordinates match /B/.
 Write SHELL TO ATOM MAP                   from file      0 offset           0 length                   5 to matrix element file.
 Write SHELL TYPES                         from file      0 offset           0 length                   5 to matrix element file.
 Write NUMBER OF PRIMITIVES PER SHELL      from file      0 offset           0 length                   5 to matrix element file.
 Write PRIMITIVE EXPONENTS                 from file      0 offset           0 length                  15 to matrix element file.
 Write CONTRACTION COEFFICIENTS            from file      0 offset           0 length                  15 to matrix element file.
 Write P(S=P) CONTRACTION COEFFICIENTS     from file      0 offset           0 length                  15 to matrix element file.
 Write COORDINATES OF EACH SHELL           from file      0 offset           0 length                  15 to matrix element file.
 Write BONDS PER ATOM                      from file      0 offset           0 length                   4 to matrix element file.
 Write BONDED ATOMS                        from file      0 offset           0 length                   6 to matrix element file.
 Write BOND TYPES                          from file      0 offset           0 length                   6 to matrix element file.
 Write ONIOM CHARGE/MULT                   from file      0 offset           0 length                  32 to matrix element file.
 Write ONIOM ATOM LAYERS                   from file      0 offset           0 length                   4 to matrix element file.
 Write ONIOM ATOM MODIFIERS                from file      0 offset           0 length                   4 to matrix element file.
 Write ONIOM ATOM TYPES                    from file      0 offset           0 length                   4 to matrix element file.
 Write ONIOM LINK ATOMS                    from file      0 offset           0 length                   4 to matrix element file.
 Write ONIOM LINK CHARGES                  from file      0 offset           0 length                   4 to matrix element file.
 Write ONIOM LINK DISTANCES                from file      0 offset           0 length                  16 to matrix element file.
 Write SYMINF INTS                         from file      0 offset           0 length                  26 to matrix element file.
 Write ROTTR TO SO                         from file      0 offset           0 length                  12 to matrix element file.
 Write TITLE                               from file      0 offset           0 length                   2 to matrix element file.
 Write ROUTE                               from file      0 offset           0 length                   8 to matrix element file.
 Write INFO1-9                             from file      0 offset           0 length                   9 to matrix element file.
 Write METHOD                              from file      0 offset           0 length                   1 to matrix element file.
 Write BASIS NAME                          from file      0 offset           0 length                   1 to matrix element file.
 Write GAUSSIAN SCALARS                    from file    501 offset           0 to matrix element file.
 Write OPTIMIZATION FLAGS                  from file      0 offset           0 length                   4 to matrix element file.
 Write INTEGER ISO                         from file      0 offset           0 length                   4 to matrix element file.
 Write INTEGER SPIN                        from file      0 offset           0 length                   4 to matrix element file.
 Write REAL ZEFFECTIVE                     from file      0 offset           0 length                   4 to matrix element file.
 Write REAL QUADRUPOLEMOMENT               from file      0 offset           0 length                   4 to matrix element file.
 Write REAL GFACTOR                        from file      0 offset           0 length                   4 to matrix element file.
 Write REAL ZNUCLEAR                       from file      0 offset           0 length                   4 to matrix element file.
 Write MULLIKEN CHARGES                    from file      0 offset           0 length                   4 to matrix element file.
 Write NUCLEAR GRADIENT                    from file      0 offset           0 length                  12 to matrix element file.
 Write NON-ADIABATIC COUPLING              from file      0 offset           0 length                  12 to matrix element file.
 Write ELECTRIC DIPOLE MOMENT              from file      0 offset           0 length                   3 to matrix element file.
 Write QUADRUPOLE MOMENT                   from file      0 offset           0 length                   6 to matrix element file.
 Write ANISOTROPIC HYPERFINE TENSORS       from file      0 offset           0 length                  24 to matrix element file.
 Write ISOTROPIC HYPERFINE SPLITTINGS      from file      0 offset           0 length                   4 to matrix element file.
 Write QEQ COUPLING TENSORS                from file      0 offset           0 length                  24 to matrix element file.
 Write HARM CONSTRAINT C and FC            from file      0 offset           0 length                  24 to matrix element file.
 Write FINITE EM FIELD                     from file 100521 offset           0 length                 105 to matrix element file.
 Write OVERLAP                             from file 100514 offset           0 length                  36 to matrix element file.
 Write CORE HAMILTONIAN ALPHA              from file 100515 offset           0 length                  36 to matrix element file.
 Write CORE HAMILTONIAN BETA               from file 100515 offset          36 length                  36 to matrix element file.
 Write KINETIC ENERGY                      from file 100516 offset           0 length                  36 to matrix element file.
 Write ORTHOGONAL BASIS                    from file 100685 offset           0 length                  64 to matrix element file.
 Write DIPOLE INTEGRALS                    from file 100518 offset           0 length                 108 to matrix element file.
 Write DIP VEL INTEGRALS                   from file 100572 offset           0 length                 108 to matrix element file.
 Write R X DEL INTEGRALS                   from file 100572 offset         108 length                 108 to matrix element file.
 Write ALPHA ORBITAL ENERGIES              from file      0 offset           0 length                   8 to matrix element file.
 Write BETA ORBITAL ENERGIES               from file      0 offset           0 length                   8 to matrix element file.
 Write ALPHA MO COEFFICIENTS               from file 100524 offset           0 length                  64 to matrix element file.
 Write BETA MO COEFFICIENTS                from file 100526 offset           0 length                  64 to matrix element file.
 Write ALPHA DENSITY MATRIX                from file      0 offset           0 length                  36 to matrix element file.
 Write BETA DENSITY MATRIX                 from file      0 offset           0 length                  36 to matrix element file.
 Write ALPHA FOCK MATRIX                   from file 100536 offset           0 length                  36 to matrix element file.
 Write BETA FOCK MATRIX                    from file 100538 offset           0 length                  36 to matrix element file.
 Write ENERGY-WEIGHTED DENSITY             from file 100571 offset           0 length                  36 to matrix element file.
 Write ALPHA SCF DENSITY MATRIX            from file      0 offset           0 length                  36 to matrix element file.
 Write BETA SCF DENSITY MATRIX             from file      0 offset           0 length                  36 to matrix element file.
 Write REGULAR 2E INTEGRALS                to matrix element file, NR=1 ITotal=         341.
 Job cpu time:       0 days  0 hours  0 minutes  9.5 seconds.
 Elapsed time:       0 days  0 hours  0 minutes  2.7 seconds.
 File lengths (MBytes):  RWF=      6 Int=      1 D2E=      0 Chk=      2 Scr=      1
 Normal termination of Gaussian DV at Fri Jan 19 18:09:42 2024.
