************************************************************
This is node15.cluster of cluster Pinconning.
Date: Mon Dec 11 16:52:39 PST 2023
************************************************************
 Set GAUSS_MDEF to "32GB".
 Set GAUSS_PDEF to "12".
 Entering Gaussian System, Link 0=gdv
 Initial command:
 /opt/gaussian/gdv-20210302-j15/gdv/l1.exe "/tmp/896865.1.allnodes.q/Gau-11860.inp" -scrdir="/tmp/896865.1.allnodes.q/"
 Default is to use a total of  12 processors:
                               12 via shared-memory
                                1 via Linda
 Entering Link 1 = /opt/gaussian/gdv-20210302-j15/gdv/l1.exe PID=     11861.
  
 Copyright (c) 1988-2021, Gaussian, Inc.  All Rights Reserved.
  
 This is the private, development version of
 the Gaussian(R) DV system of programs. It is based on
 the Gaussian(R) 16 system (copyright 2016, Gaussian, Inc.),
 the Gaussian(R) 09 system (copyright 2009, Gaussian, Inc.),
 the Gaussian(R) 03 system (copyright 2003, Gaussian, Inc.),
 the Gaussian(R) 98 system (copyright 1998, Gaussian, Inc.),
 the Gaussian(R) 94 system (copyright 1995, Gaussian, Inc.),
 the Gaussian 92(TM) system (copyright 1992, Gaussian, Inc.),
 the Gaussian 90(TM) system (copyright 1990, Gaussian, Inc.),
 the Gaussian 88(TM) system (copyright 1988, Gaussian, Inc.),
 the Gaussian 86(TM) system (copyright 1986, Carnegie Mellon
 University), and the Gaussian 82(TM) system (copyright 1983,
 Carnegie Mellon University). Gaussian is a federally registered
 trademark of Gaussian, Inc.
  
 This software contains proprietary and confidential information,
 including trade secrets, belonging to Gaussian, Inc.
  
 This software is provided under written license and may be
 used, copied, transmitted, or stored only in accord with that
 written license.
  
 The following legend is applicable only to US Government
 contracts under FAR:
  
                    RESTRICTED RIGHTS LEGEND
  
 Use, reproduction and disclosure by the US Government is
 subject to restrictions as set forth in subparagraphs (a)
 and (c) of the Commercial Computer Software - Restricted
 Rights clause in FAR 52.227-19.
  
 Gaussian, Inc.
 340 Quinnipiac St., Bldg. 40, Wallingford CT 06492
  
  
 ---------------------------------------------------------------
 Warning -- This program may not be used in any manner that
 competes with the business of Gaussian, Inc. or will provide
 assistance to any competitor of Gaussian, Inc.  The licensee
 of this program is prohibited from giving any competitor of
 Gaussian, Inc. access to this program.  By using this program,
 the user acknowledges that Gaussian, Inc. is engaged in the
 business of creating and licensing software in the field of
 computational chemistry and represents and warrants to the
 licensee that it is not a competitor of Gaussian, Inc. and that
 it will not use this program in any manner prohibited above.
 ---------------------------------------------------------------
  

 Cite this work as:
 Gaussian Development Version, Revision J.15,
 M. J. Frisch, G. W. Trucks, H. B. Schlegel, G. E. Scuseria, 
 M. A. Robb, J. R. Cheeseman, G. Scalmani, V. Barone, 
 G. A. Petersson, H. Nakatsuji, X. Li, A. V. Marenich, M. Caricato, 
 J. Bloino, B. G. Janesko, J. Zheng, R. Gomperts, B. Mennucci, 
 H. P. Hratchian, J. V. Ortiz, A. F. Izmaylov, J. L. Sonnenberg, 
 D. Williams-Young, F. Ding, F. Lipparini, F. Egidi, J. Goings, 
 B. Peng, A. Petrone, T. Henderson, D. Ranasinghe, V. G. Zakrzewski, 
 J. Gao, N. Rega, G. Zheng, W. Liang, M. Hada, M. Ehara, K. Toyota, 
 R. Fukuda, J. Hasegawa, M. Ishida, T. Nakajima, Y. Honda, O. Kitao, 
 H. Nakai, T. Vreven, K. Throssell, J. A. Montgomery, Jr., 
 J. E. Peralta, F. Ogliaro, M. J. Bearpark, J. J. Heyd, 
 E. N. Brothers, K. N. Kudin, V. N. Staroverov, T. A. Keith, 
 R. Kobayashi, J. Normand, K. Raghavachari, A. P. Rendell, 
 J. C. Burant, S. S. Iyengar, J. Tomasi, M. Cossi, J. M. Millam, 
 M. Klene, C. Adamo, R. Cammi, J. W. Ochterski, R. L. Martin, 
 K. Morokuma, O. Farkas, J. B. Foresman, and D. J. Fox, 
 Gaussian, Inc., Wallingford CT, 2020.
 
 ******************************************
 Gaussian DV:  ES64L-GDVRevJ.15 23-Feb-2021
                11-Dec-2023 
 ******************************************
 %chk=test003
 ----------------------------------------------------------------------
 #p test geom=modela mp2=full 6-31G output=(mat,AO2ElectronIntegrals,MO
 2ElectronIntegrals) tran=full window=full int=noraff nosymm
 ----------------------------------------------------------------------
 1/29=4,37=210000000,38=1,172=1/1;
 2/12=2,15=1/2;
 3/5=1,6=6,25=20,28=1,30=1/1,2,3,8,20;
 4//1;
 5/5=1,29=1/2;
 8/6=5,9=40000,10=90/1,4;
 9/101=1/6;
 6/7=2,8=2,9=2,10=2/1;
 99/5=1,6=100000,9=1/99;
 Leave Link    1 at Mon Dec 11 16:52:39 2023, MaxMem=           0 cpu:               0.2 elap:               0.2
 (Enter /opt/gaussian/gdv-20210302-j15/gdv/l101.exe)
 ----
 test
 ----
 Charge =  0 Multiplicity = 1
 Model A used to generate z-matrix:
 Short formula matrix:
   Atom   Symbol  Geom  Angle Array F
    1        O    Bent         2   3
    2        H                 1   0
    3        H                 1   0
 Generated Z-Matrix:
 O
 H,1,R2
 H,1,R2,2,A3
      Variables:
 R2=0.96
 A3=109.47122063
     1 tetrahedral angles replaced.
 ITRead=  0  0  0
 MicOpt= -1 -1 -1
 NAtoms=      3 NQM=        3 NQMF=       0 NMMI=      0 NMMIF=      0
                NMic=       0 NMicF=      0.
    1 tetrahedral angles replaced.
                    Isotopes and Nuclear Properties:
 (Nuclear quadrupole moments (NQMom) in fm**2, nuclear magnetic moments (NMagM)
  in nuclear magnetons)

  Atom         1           2           3
 IAtWgt=          16           1           1
 AtmWgt=  15.9949146   1.0078250   1.0078250
 NucSpn=           0           1           1
 AtZEff=  -0.0000000  -0.0000000  -0.0000000
 NQMom=    0.0000000   0.0000000   0.0000000
 NMagM=    0.0000000   2.7928460   2.7928460
 AtZNuc=   8.0000000   1.0000000   1.0000000
 Leave Link  101 at Mon Dec 11 16:52:40 2023, MaxMem=  4294967296 cpu:               0.7 elap:               0.3
 (Enter /opt/gaussian/gdv-20210302-j15/gdv/l202.exe)
                          Input orientation:                          
 ---------------------------------------------------------------------
 Center     Atomic      Atomic             Coordinates (Angstroms)
 Number     Number       Type             X           Y           Z
 ---------------------------------------------------------------------
      1          8           0        0.000000    0.000000   -0.000000
      2          1           0        0.000000   -0.000000    0.960000
      3          1           0        0.905097    0.000000   -0.320000
 ---------------------------------------------------------------------
                    Distance matrix (angstroms):
                    1          2          3
     1  O    0.000000
     2  H    0.960000   0.000000
     3  H    0.960000   1.567673   0.000000
 Symmetry turned off by external request.
 Stoichiometry    H2O
 Framework group  C2V[C2(O),SGV(H2)]
 Deg. of freedom     2
 Full point group                 C2V     NOp   4
 Rotational constants (GHZ):         919.0227301         408.0852087         282.5991554
 Leave Link  202 at Mon Dec 11 16:52:40 2023, MaxMem=  4294967296 cpu:               0.4 elap:               0.2
 (Enter /opt/gaussian/gdv-20210302-j15/gdv/l301.exe)
 Standard basis: 6-31G (6D, 7F)
 Ernie: Thresh=  0.10000D-02 Tol=  0.10000D-05 Strict=F.
    13 basis functions,    30 primitive gaussians,    13 cartesian basis functions
     5 alpha electrons        5 beta electrons
       nuclear repulsion energy         9.1571759503 Hartrees.
 IExCor=       0 DFT=F Ex=HF Corr=None N6=None ScaHFX=  1.000000
 ScaDFX=  1.000000  1.000000  1.000000  1.000000  1.000000  0.000000
 ScaDFX=  0.000000  0.000000  0.000000  0.000000  0.000000  0.000000
 IRadAn=      5 IRanWt=     -1 IRanGd=            0 ICorTp=0 IEmpDi=  4
 NAtoms=    3 NActive=    3 NUniq=    3 SFac= 1.00D+00 NAtFMM=   60 NAOKFM=F Big=F
 Integral buffers will be    131072 words long.
 Regular integral format.
 Two-electron integral symmetry is turned off.
 Leave Link  301 at Mon Dec 11 16:52:40 2023, MaxMem=  4294967296 cpu:               0.2 elap:               0.2
 (Enter /opt/gaussian/gdv-20210302-j15/gdv/l302.exe)
 NPDir=0 NMtPBC=     1 NCelOv=     1 NCel=       1 NClECP=     1 NCelD=      1
         NCelK=      1 NCelE2=     1 NClLst=     1 CellRange=     0.0.
 One-electron integrals computed using PRISM.
 NBasis=    13 RedAO= T EigKep=  6.95D-02  NBF=    13
 NBsUse=    13 1.00D-06 EigRej= -1.00D+00 NBFU=    13
 Leave Link  302 at Mon Dec 11 16:52:40 2023, MaxMem=  4294967296 cpu:               0.9 elap:               0.3
 (Enter /opt/gaussian/gdv-20210302-j15/gdv/l303.exe)
 DipDrv:  MaxL=1.
 Leave Link  303 at Mon Dec 11 16:52:40 2023, MaxMem=  4294967296 cpu:               0.2 elap:               0.1
 (Enter /opt/gaussian/gdv-20210302-j15/gdv/l308.exe)
 Leave Link  308 at Mon Dec 11 16:52:41 2023, MaxMem=  4294967296 cpu:               0.1 elap:               0.1
 (Enter /opt/gaussian/gdv-20210302-j15/gdv/l320.exe)
 Enter DskPsm, NBasis=  13 NBas6D=  13 NShell=   7 IDoSP=4 IDer=0 ISMode=0.
 Out2e will use a cutoff of  1.00D-10
 FoFCou: FMM=F IPFlag=           0 FMFlag=           0 FMFlg1=           0
         NFxFlg=           0 DoJE=F BraDBF=F KetDBF=F FulRan=T
         wScrn=  0.000000 ICntrl=       600 IOpCl=  9 I1Cent=           0 NGrid=           0
         NMat0=    0 NMatS0=      0 NMatT0=    0 NMatD0=    0 NMtDS0=    0 NMtDT0=    0
 Symmetry not used in FoFCou.
         1998 integrals produced for a total of         1998.
 Leave Link  320 at Mon Dec 11 16:52:41 2023, MaxMem=  4294967296 cpu:               1.1 elap:               0.4
 (Enter /opt/gaussian/gdv-20210302-j15/gdv/l401.exe)
 ExpMin= 1.61D-01 ExpMax= 5.48D+03 ExpMxC= 8.25D+02 IAcc=3 IRadAn=         5 AccDes= 0.00D+00
 Harris functional with IExCor= 2005 and IRadAn=       5 diagonalized for initial guess.
 HarFok:  IExCor=    2005 AccDes= 0.00D+00 IRadAn=         5 IDoV= 1 UseB2=F ITyADJ=14 ICtDFT=  3500011
 FoFCou: FMM=F IPFlag=           0 FMFlag=      100000 FMFlg1=           0
         NFxFlg=           0 DoJE=T BraDBF=F KetDBF=T FulRan=T
         wScrn=  0.000000 ICntrl=       500 IOpCl=  0 I1Cent=   200000004 NGrid=           0
         NMat0=    1 NMatS0=      1 NMatT0=    0 NMatD0=    1 NMtDS0=    0 NMtDT0=    0
 Symmetry not used in FoFCou.
 Harris En= -76.0875888375258    
 JPrj=0 DoOrth=F DoCkMO=F.
 Leave Link  401 at Mon Dec 11 16:52:41 2023, MaxMem=  4294967296 cpu:               1.9 elap:               0.5
 (Enter /opt/gaussian/gdv-20210302-j15/gdv/l502.exe)
 Two-electron integral symmetry not used.
 Closed shell SCF:
 Using DIIS extrapolation, IDIIS=  1040.
 NGot=  4294967296 LenX=  4294703595 LenY=  4294702713
 Requested convergence on RMS density matrix=1.00D-08 within 128 cycles.
 Requested convergence on MAX density matrix=1.00D-06.
 Requested convergence on             energy=1.00D-06.
 No special actions if energy rises.

 Cycle   1  Pass 1  IDiag  1:
 E= -75.9008829519310    
 DIIS: error= 9.51D-02 at cycle   1 NSaved=   1.
 NSaved= 1 IEnMin= 1 EnMin= -75.9008829519310     IErMin= 1 ErrMin= 9.51D-02
 ErrMax= 9.51D-02  0.00D+00 EMaxC= 1.00D-01 BMatC= 1.18D-01 BMatP= 1.18D-01
 IDIUse=3 WtCom= 4.91D-02 WtEn= 9.51D-01
 Coeff-Com:  0.100D+01
 Coeff-En:   0.100D+01
 Coeff:      0.100D+01
 Gap=     0.576 Goal=   None    Shift=    0.000
 GapD=    0.576 DampG=2.000 DampE=0.500 DampFc=1.0000 IDamp=-1.
 RMSDP=2.31D-02 MaxDP=1.22D-01              OVMax= 1.16D-01

 Cycle   2  Pass 1  IDiag  1:
 E= -75.9572086150690     Delta-E=       -0.056325663138 Rises=F Damp=F
 DIIS: error= 5.30D-02 at cycle   2 NSaved=   2.
 NSaved= 2 IEnMin= 2 EnMin= -75.9572086150690     IErMin= 2 ErrMin= 5.30D-02
 ErrMax= 5.30D-02  0.00D+00 EMaxC= 1.00D-01 BMatC= 4.03D-02 BMatP= 1.18D-01
 IDIUse=3 WtCom= 4.70D-01 WtEn= 5.30D-01
 Coeff-Com:  0.360D+00 0.640D+00
 Coeff-En:   0.111D+00 0.889D+00
 Coeff:      0.228D+00 0.772D+00
 Gap=     0.723 Goal=   None    Shift=    0.000
 RMSDP=1.13D-02 MaxDP=5.96D-02 DE=-5.63D-02 OVMax= 3.87D-02

 Cycle   3  Pass 1  IDiag  1:
 E= -75.9835245628560     Delta-E=       -0.026315947787 Rises=F Damp=F
 DIIS: error= 1.31D-02 at cycle   3 NSaved=   3.
 NSaved= 3 IEnMin= 3 EnMin= -75.9835245628560     IErMin= 3 ErrMin= 1.31D-02
 ErrMax= 1.31D-02  0.00D+00 EMaxC= 1.00D-01 BMatC= 2.02D-03 BMatP= 4.03D-02
 IDIUse=3 WtCom= 8.69D-01 WtEn= 1.31D-01
 Coeff-Com: -0.342D-01 0.144D+00 0.890D+00
 Coeff-En:   0.000D+00 0.000D+00 0.100D+01
 Coeff:     -0.297D-01 0.125D+00 0.904D+00
 Gap=     0.698 Goal=   None    Shift=    0.000
 RMSDP=2.18D-03 MaxDP=1.18D-02 DE=-2.63D-02 OVMax= 1.12D-02

 Cycle   4  Pass 1  IDiag  1:
 E= -75.9850560615118     Delta-E=       -0.001531498656 Rises=F Damp=F
 DIIS: error= 1.63D-03 at cycle   4 NSaved=   4.
 NSaved= 4 IEnMin= 4 EnMin= -75.9850560615118     IErMin= 4 ErrMin= 1.63D-03
 ErrMax= 1.63D-03  0.00D+00 EMaxC= 1.00D-01 BMatC= 2.26D-05 BMatP= 2.02D-03
 IDIUse=3 WtCom= 9.84D-01 WtEn= 1.63D-02
 Coeff-Com:  0.835D-02-0.769D-01-0.278D+00 0.135D+01
 Coeff-En:   0.000D+00 0.000D+00 0.000D+00 0.100D+01
 Coeff:      0.821D-02-0.757D-01-0.273D+00 0.134D+01
 Gap=     0.703 Goal=   None    Shift=    0.000
 RMSDP=3.28D-04 MaxDP=2.25D-03 DE=-1.53D-03 OVMax= 1.08D-03

 Cycle   5  Pass 1  IDiag  1:
 E= -75.9850779709718     Delta-E=       -0.000021909460 Rises=F Damp=F
 DIIS: error= 1.37D-04 at cycle   5 NSaved=   5.
 NSaved= 5 IEnMin= 5 EnMin= -75.9850779709718     IErMin= 5 ErrMin= 1.37D-04
 ErrMax= 1.37D-04  0.00D+00 EMaxC= 1.00D-01 BMatC= 1.26D-07 BMatP= 2.26D-05
 IDIUse=3 WtCom= 9.99D-01 WtEn= 1.37D-03
 Coeff-Com: -0.198D-02 0.228D-01 0.745D-01-0.483D+00 0.139D+01
 Coeff-En:   0.000D+00 0.000D+00 0.000D+00 0.000D+00 0.100D+01
 Coeff:     -0.197D-02 0.228D-01 0.744D-01-0.483D+00 0.139D+01
 Gap=     0.703 Goal=   None    Shift=    0.000
 RMSDP=6.70D-05 MaxDP=3.03D-04 DE=-2.19D-05 OVMax= 3.83D-04

 Cycle   6  Pass 1  IDiag  1:
 E= -75.9850783036090     Delta-E=       -0.000000332637 Rises=F Damp=F
 DIIS: error= 1.50D-05 at cycle   6 NSaved=   6.
 NSaved= 6 IEnMin= 6 EnMin= -75.9850783036090     IErMin= 6 ErrMin= 1.50D-05
 ErrMax= 1.50D-05  0.00D+00 EMaxC= 1.00D-01 BMatC= 2.46D-09 BMatP= 1.26D-07
 IDIUse=1 WtCom= 1.00D+00 WtEn= 0.00D+00
 Coeff-Com:  0.644D-03-0.805D-02-0.254D-01 0.181D+00-0.592D+00 0.144D+01
 Coeff:      0.644D-03-0.805D-02-0.254D-01 0.181D+00-0.592D+00 0.144D+01
 Gap=     0.703 Goal=   None    Shift=    0.000
 RMSDP=9.19D-06 MaxDP=3.64D-05 DE=-3.33D-07 OVMax= 5.52D-05

 Cycle   7  Pass 1  IDiag  1:
 E= -75.9850783106629     Delta-E=       -0.000000007054 Rises=F Damp=F
 DIIS: error= 3.30D-06 at cycle   7 NSaved=   7.
 NSaved= 7 IEnMin= 7 EnMin= -75.9850783106629     IErMin= 7 ErrMin= 3.30D-06
 ErrMax= 3.30D-06  0.00D+00 EMaxC= 1.00D-01 BMatC= 1.26D-10 BMatP= 2.46D-09
 IDIUse=1 WtCom= 1.00D+00 WtEn= 0.00D+00
 Coeff-Com: -0.568D-04 0.957D-03 0.274D-02-0.261D-01 0.105D+00-0.432D+00
 Coeff-Com:  0.135D+01
 Coeff:     -0.568D-04 0.957D-03 0.274D-02-0.261D-01 0.105D+00-0.432D+00
 Coeff:      0.135D+01
 Gap=     0.703 Goal=   None    Shift=    0.000
 RMSDP=1.70D-06 MaxDP=6.17D-06 DE=-7.05D-09 OVMax= 1.10D-05

 Cycle   8  Pass 1  IDiag  1:
 E= -75.9850783109624     Delta-E=       -0.000000000300 Rises=F Damp=F
 DIIS: error= 3.57D-07 at cycle   8 NSaved=   8.
 NSaved= 8 IEnMin= 8 EnMin= -75.9850783109624     IErMin= 8 ErrMin= 3.57D-07
 ErrMax= 3.57D-07  0.00D+00 EMaxC= 1.00D-01 BMatC= 1.61D-12 BMatP= 1.26D-10
 IDIUse=1 WtCom= 1.00D+00 WtEn= 0.00D+00
 Coeff-Com: -0.883D-05 0.318D-04 0.193D-03 0.574D-03-0.687D-02 0.575D-01
 Coeff-Com: -0.298D+00 0.125D+01
 Coeff:     -0.883D-05 0.318D-04 0.193D-03 0.574D-03-0.687D-02 0.575D-01
 Coeff:     -0.298D+00 0.125D+01
 Gap=     0.703 Goal=   None    Shift=    0.000
 RMSDP=2.01D-07 MaxDP=7.52D-07 DE=-3.00D-10 OVMax= 1.21D-06

 Cycle   9  Pass 1  IDiag  1:
 E= -75.9850783109663     Delta-E=       -0.000000000004 Rises=F Damp=F
 DIIS: error= 5.39D-08 at cycle   9 NSaved=   9.
 NSaved= 9 IEnMin= 9 EnMin= -75.9850783109663     IErMin= 9 ErrMin= 5.39D-08
 ErrMax= 5.39D-08  0.00D+00 EMaxC= 1.00D-01 BMatC= 2.76D-14 BMatP= 1.61D-12
 IDIUse=1 WtCom= 1.00D+00 WtEn= 0.00D+00
 Coeff-Com:  0.137D-05 0.156D-05-0.160D-04-0.342D-03 0.219D-02-0.143D-01
 Coeff-Com:  0.690D-01-0.356D+00 0.130D+01
 Coeff:      0.137D-05 0.156D-05-0.160D-04-0.342D-03 0.219D-02-0.143D-01
 Coeff:      0.690D-01-0.356D+00 0.130D+01
 Gap=     0.703 Goal=   None    Shift=    0.000
 RMSDP=3.48D-08 MaxDP=9.64D-08 DE=-3.85D-12 OVMax= 2.18D-07

 Cycle  10  Pass 1  IDiag  1:
 E= -75.9850783109663     Delta-E=        0.000000000000 Rises=F Damp=F
 DIIS: error= 4.29D-09 at cycle  10 NSaved=  10.
 NSaved=10 IEnMin= 9 EnMin= -75.9850783109663     IErMin=10 ErrMin= 4.29D-09
 ErrMax= 4.29D-09  0.00D+00 EMaxC= 1.00D-01 BMatC= 1.71D-16 BMatP= 2.76D-14
 IDIUse=1 WtCom= 1.00D+00 WtEn= 0.00D+00
 Coeff-Com: -0.195D-06 0.366D-06 0.349D-05 0.251D-04-0.195D-03 0.136D-02
 Coeff-Com: -0.738D-02 0.430D-01-0.217D+00 0.118D+01
 Coeff:     -0.195D-06 0.366D-06 0.349D-05 0.251D-04-0.195D-03 0.136D-02
 Coeff:     -0.738D-02 0.430D-01-0.217D+00 0.118D+01
 Gap=     0.703 Goal=   None    Shift=    0.000
 RMSDP=3.39D-09 MaxDP=1.05D-08 DE= 0.00D+00 OVMax= 2.00D-08

 SCF Done:  E(RHF) =  -75.9850783110     A.U. after   10 cycles
            NFock= 10  Conv=0.34D-08     -V/T= 2.0001
 KE= 7.597651851508D+01 PE=-1.989154367064D+02 EE= 3.779666393010D+01
 Leave Link  502 at Mon Dec 11 16:52:42 2023, MaxMem=  4294967296 cpu:               0.6 elap:               0.2
 (Enter /opt/gaussian/gdv-20210302-j15/gdv/l801.exe)
 Range of M.O.s used for correlation:     1    13
 NBasis=    13 NAE=     5 NBE=     5 NFC=     0 NFV=     0
 NROrb=     13 NOA=     5 NOB=     5 NVA=     8 NVB=     8
 Leave Link  801 at Mon Dec 11 16:52:42 2023, MaxMem=  4294967296 cpu:               0.1 elap:               0.1
 (Enter /opt/gaussian/gdv-20210302-j15/gdv/l804.exe)
 Closed-shell transformation, MDV=  4294967296 ITran=5 ISComp=4.
 Unit  1 TFree=          6945 TCopy=        236360.
 Semi-Direct transformation.
 ModeAB=           2 MOrb=            13 LenV=    4294772200
 LASXX=         4186 LTotXX=        4186 LenRXX=        4186
 LTotAB=           0 MaxLAS=        8281 LenRXY=           0
 NonZer=        9373 LenScr=      785920 LnRSAI=           0
 LnScr1=           0 LExtra=        8281 Total=       798387
 MaxDsk=          -1 SrtSym=           F ITran=            5
 DoSDTr:  NPSUse= 12
 JobTyp=0 Pass  1:  I=   1 to  13.
 (rs|ai) integrals will be sorted in core.
 Complete sort for first half transformation.
 First half transformation complete.
 Begin second half transformation for I=  10.
 Complete sort for second half transformation.
 Second half transformation complete.
 E1=-0.122938918202D+03 E2= 0.377966639407D+02
 E2AA=     -0.1511693453D-01 E2AB=     -0.9852296382D-01 E2BB=     -0.1511693453D-01
 E2BA=     -0.9852296382D-01 Diff=  0.00D+00
 E2 =    -0.1287568329D+00 EUMP2 =    -0.76113835143843D+02
 Leave Link  804 at Mon Dec 11 16:52:42 2023, MaxMem=  4294967296 cpu:               0.6 elap:               0.2
 (Enter /opt/gaussian/gdv-20210302-j15/gdv/l906.exe)
 FulOut=F Deriv=F AODrv=F NAtomX=     3
   MMem=      202439  MDisk=           5 MDiskD=           5
  W3Min=         520 MinDsk=       51763 NBas6D=          13
 NBas2D=         103    NTT=          91    LW2=     2000000
    MDV=  4294961912 MDiskM=     3439873 NBas2p=         103
 Fully in-core method, ICMem=     6016823.
 IMap=   1   2   3   4   5
 IPassX=     1 ND2=   0 JobTyp=1 Pass  1 fully in-core, NPsUse= 12.
 Compute canonical integrals.
 FoFCou: FMM=F IPFlag=           0 FMFlag=           0 FMFlg1=           0
         NFxFlg=           0 DoJE=F BraDBF=F KetDBF=F FulRan=T
         wScrn=  0.000000 ICntrl=       600 IOpCl=  1 I1Cent=           0 NGrid=           0
         NMat0=    1 NMatS0=    103 NMatT0=    0 NMatD0=    1 NMtDS0=    0 NMtDT0=    0
 Symmetry not used in FoFCou.
 Spin components of T(2) and E(2):
     alpha-alpha T2 =       0.4394734936D-02 E2=     -0.1511693453D-01
     alpha-beta  T2 =       0.2890334548D-01 E2=     -0.9852296382D-01
     beta-beta   T2 =       0.4394734936D-02 E2=     -0.1511693453D-01
 The integrals were generated   1 times.
 ANorm=    0.1018672084D+01
 E2 =    -0.1287568329D+00 EUMP2 =    -0.76113835143843D+02
 Leave Link  906 at Mon Dec 11 16:52:42 2023, MaxMem=  4294967296 cpu:               1.3 elap:               0.4
 (Enter /opt/gaussian/gdv-20210302-j15/gdv/l601.exe)
 Copying SCF densities to generalized density rwf, IOpCl= 0 IROHF=0.

 **********************************************************************

            Population analysis using the SCF Density.

 **********************************************************************

 Alpha  occ. eigenvalues --      -20.55712      -1.34934      -0.71695      -0.55067      -0.49871
 Alpha virt. eigenvalues --        0.20412       0.29997       1.08676       1.15984       1.16641
 Alpha virt. eigenvalues --        1.20777       1.38369       1.68080
          Condensed to atoms (all electrons):
               1          2          3
     1  O    8.286071   0.260589   0.260589
     2  H    0.260589   0.364168  -0.028381
     3  H    0.260589  -0.028381   0.364168
 Mulliken charges:
               1
     1  O   -0.807248
     2  H    0.403624
     3  H    0.403624
 Sum of Mulliken charges =  -0.00000
 Mulliken charges with hydrogens summed into heavy atoms:
               1
     1  O   -0.000000
 Electronic spatial extent (au):  <R**2>=             19.1348
 Charge=             -0.0000 electrons
 Dipole moment (field-independent basis, Debye):
    X=              2.0768    Y=             -0.0000    Z=              1.4685  Tot=              2.5436
 Quadrupole moment (field-independent basis, Debye-Ang):
   XX=             -5.1216   YY=             -7.2160   ZZ=             -4.5462
   XY=              0.0000   XZ=             -0.8137   YZ=             -0.0000
 Traceless Quadrupole moment (field-independent basis, Debye-Ang):
   XX=              0.5063   YY=             -1.5881   ZZ=              1.0817
   XY=              0.0000   XZ=             -0.8137   YZ=             -0.0000
 Octapole moment (field-independent basis, Debye-Ang**2):
  XXX=              0.4756  YYY=             -0.0000  ZZZ=              0.9489  XYY=             -0.3033
  XXY=              0.0000  XXZ=             -0.7047  XZZ=             -0.1303  YZZ=             -0.0000
  YYZ=             -0.2145  XYZ=             -0.0000
 Hexadecapole moment (field-independent basis, Debye-Ang**3):
 XXXX=             -5.1250 YYYY=             -5.1910 ZZZZ=             -4.9797 XXXY=              0.0000
 XXXZ=             -0.3243 YYYX=              0.0000 YYYZ=             -0.0000 ZZZX=              0.1187
 ZZZY=             -0.0000 XXYY=             -1.9624 XXZZ=             -2.0496 YYZZ=             -2.0076
 XXYZ=             -0.0000 YYXZ=              0.0638 ZZXY=              0.0000
 N-N= 9.157175950298D+00 E-N=-1.989154367171D+02  KE= 7.597651851508D+01
 Leave Link  601 at Mon Dec 11 16:52:43 2023, MaxMem=  4294967296 cpu:               0.3 elap:               0.1
 (Enter /opt/gaussian/gdv-20210302-j15/gdv/l9999.exe)

 Test job not archived.
 1\1\GINC-NODE15\SP\RMP2-Full\6-31G\H2O1\ABOVILL\11-Dec-2023\0\\#p test
  geom=modela mp2=full 6-31G output=(mat,AO2ElectronIntegrals,MO2Electr
 onIntegrals) tran=full window=full int=noraff nosymm\\test\\0,1\O\H,1,
 0.96\H,1,0.96,2,109.47122063\\Version=ES64L-GDVRevJ.15\HF=-75.9850783\
 MP2=-76.1138351\RMSD=3.387e-09\PG=C02V [C2(O1),SGV(H2)]\\@


 SIC AS THE CAWSE OF EWERY THING IS, SIC WILBE THE EFFECT.
 -- PROVERBS AND REASONS OF THE YEAR 1585
           AS REPRINTED IN PAISLEY MAGAZINE 1828.

 Writing WrtUnf unformatted file "h20.mat"
 Gaussian matrix elements                                         Version   3 NLab=11 I4Labs=F I2Labs=F
 Write SHELL TO ATOM MAP                   from file      0 offset           0 length                   7 to matrix element file.
 Write SHELL TYPES                         from file      0 offset           0 length                   7 to matrix element file.
 Write NUMBER OF PRIMITIVES PER SHELL      from file      0 offset           0 length                   7 to matrix element file.
 Write PRIMITIVE EXPONENTS                 from file      0 offset           0 length                  18 to matrix element file.
 Write CONTRACTION COEFFICIENTS            from file      0 offset           0 length                  18 to matrix element file.
 Write P(S=P) CONTRACTION COEFFICIENTS     from file      0 offset           0 length                  18 to matrix element file.
 Write COORDINATES OF EACH SHELL           from file      0 offset           0 length                  21 to matrix element file.
 Write BONDS PER ATOM                      from file      0 offset           0 length                   3 to matrix element file.
 Write BONDED ATOMS                        from file      0 offset           0 length                   4 to matrix element file.
 Write BOND TYPES                          from file      0 offset           0 length                   4 to matrix element file.
 Write ONIOM CHARGE/MULT                   from file      0 offset           0 length                  32 to matrix element file.
 Write ONIOM ATOM LAYERS                   from file      0 offset           0 length                   3 to matrix element file.
 Write ONIOM ATOM MODIFIERS                from file      0 offset           0 length                   3 to matrix element file.
 Write ONIOM ATOM TYPES                    from file      0 offset           0 length                   3 to matrix element file.
 Write ONIOM LINK ATOMS                    from file      0 offset           0 length                   3 to matrix element file.
 Write ONIOM LINK CHARGES                  from file      0 offset           0 length                   3 to matrix element file.
 Write ONIOM LINK DISTANCES                from file      0 offset           0 length                  12 to matrix element file.
 Write SYMINF INTS                         from file      0 offset           0 length                  26 to matrix element file.
 Write ROTTR TO SO                         from file      0 offset           0 length                  12 to matrix element file.
 Write TITLE                               from file      0 offset           0 length                   1 to matrix element file.
 Write ROUTE                               from file      0 offset           0 length                  17 to matrix element file.
 Write INFO1-9                             from file      0 offset           0 length                   9 to matrix element file.
 Write METHOD                              from file      0 offset           0 length                   2 to matrix element file.
 Write BASIS NAME                          from file      0 offset           0 length                   1 to matrix element file.
 Write GAUSSIAN SCALARS                    from file    501 offset           0 to matrix element file.
 Write OPTIMIZATION FLAGS                  from file      0 offset           0 length                   3 to matrix element file.
 Write INTEGER ISO                         from file      0 offset           0 length                   3 to matrix element file.
 Write INTEGER SPIN                        from file      0 offset           0 length                   3 to matrix element file.
 Write REAL ZEFFECTIVE                     from file      0 offset           0 length                   3 to matrix element file.
 Write REAL GFACTOR                        from file      0 offset           0 length                   3 to matrix element file.
 Write REAL ZNUCLEAR                       from file      0 offset           0 length                   3 to matrix element file.
 Write MULLIKEN CHARGES                    from file      0 offset           0 length                   3 to matrix element file.
 Write NUCLEAR GRADIENT                    from file      0 offset           0 length                   9 to matrix element file.
 Write NON-ADIABATIC COUPLING              from file      0 offset           0 length                   9 to matrix element file.
 Write HARM CONSTRAINT C and FC            from file      0 offset           0 length                  18 to matrix element file.
 Write FINITE EM FIELD                     from file 100521 offset           0 length                 105 to matrix element file.
 Write OVERLAP                             from file 100514 offset           0 length                  91 to matrix element file.
 Write CORE HAMILTONIAN ALPHA              from file 100515 offset           0 length                  91 to matrix element file.
 Write CORE HAMILTONIAN BETA               from file 100515 offset          91 length                  91 to matrix element file.
 Write KINETIC ENERGY                      from file 100516 offset           0 length                  91 to matrix element file.
 Write ORTHOGONAL BASIS                    from file 100685 offset           0 length                 169 to matrix element file.
 Write DIPOLE INTEGRALS                    from file 100518 offset           0 length                 273 to matrix element file.
 Write DIP VEL INTEGRALS                   from file 100572 offset           0 length                 273 to matrix element file.
 Write R X DEL INTEGRALS                   from file 100572 offset         273 length                 273 to matrix element file.
 Write ALPHA ORBITAL ENERGIES              from file      0 offset           0 length                  13 to matrix element file.
 Write ALPHA MO COEFFICIENTS               from file 100524 offset           0 length                 169 to matrix element file.
 Write ALPHA FOCK MATRIX                   from file 100536 offset           0 length                  91 to matrix element file.
 Write ENERGY-WEIGHTED DENSITY             from file 100571 offset           0 length                  91 to matrix element file.
 Write ALPHA SCF DENSITY MATRIX            from file      0 offset           0 length                  91 to matrix element file.
 Write TRANS MO COEFFICIENTS               from file 100548 offset           0 length                 169 to matrix element file.
 Write REGULAR 2E INTEGRALS                to matrix element file, NR=1 ITotal=        1998.
 Write AA MO 2E INTEGRALS                  from file 100201 offset           0 length                4186 to matrix element file.
 Job cpu time:       0 days  0 hours  0 minutes  8.9 seconds.
 Elapsed time:       0 days  0 hours  0 minutes  3.7 seconds.
 File lengths (MBytes):  RWF=     13 Int=      1 D2E=      0 Chk=      2 Scr=      1
 Normal termination of Gaussian DV at Mon Dec 11 16:52:43 2023.
