************************************************************
This is node14.cluster of cluster Pinconning.
Date: Wed Feb 21 13:47:11 PST 2024
************************************************************
 Set GAUSS_MDEF to "32GB".
 Set GAUSS_PDEF to "12".
 Entering Gaussian System, Link 0=gdv
 Initial command:
 /opt/gaussian/gdv-20240213-j26+/gdv/l1.exe "/tmp/898423.1.allnodes.q/Gau-11382.inp" -scrdir="/tmp/898423.1.allnodes.q/"
 Default is to use a total of  12 processors:
                               12 via shared-memory
                                1 via Linda
 Entering Link 1 = /opt/gaussian/gdv-20240213-j26+/gdv/l1.exe PID=     11383.
  
 Copyright (c) 1988-2023, Gaussian, Inc.  All Rights Reserved.
  
 This is the private, development version of
 the Gaussian(R) DV system of programs. It is based on
 the Gaussian(R) 16 system (copyright 2016, Gaussian, Inc.),
 the Gaussian(R) 09 system (copyright 2009, Gaussian, Inc.),
 the Gaussian(R) 03 system (copyright 2003, Gaussian, Inc.),
 the Gaussian(R) 98 system (copyright 1998, Gaussian, Inc.),
 the Gaussian(R) 94 system (copyright 1995, Gaussian, Inc.),
 the Gaussian 92(TM) system (copyright 1992, Gaussian, Inc.),
 the Gaussian 90(TM) system (copyright 1990, Gaussian, Inc.),
 the Gaussian 88(TM) system (copyright 1988, Gaussian, Inc.),
 the Gaussian 86(TM) system (copyright 1986, Carnegie Mellon
 University), and the Gaussian 82(TM) system (copyright 1983,
 Carnegie Mellon University). Gaussian is a federally registered
 trademark of Gaussian, Inc.
  
 This software contains proprietary and confidential information,
 including trade secrets, belonging to Gaussian, Inc.
  
 This software is provided under written license and may be
 used, copied, transmitted, or stored only in accord with that
 written license.
  
 The following legend is applicable only to US Government
 contracts under FAR:
  
                    RESTRICTED RIGHTS LEGEND
  
 Use, reproduction and disclosure by the US Government is
 subject to restrictions as set forth in subparagraphs (a)
 and (c) of the Commercial Computer Software - Restricted
 Rights clause in FAR 52.227-19.
  
 Gaussian, Inc.
 340 Quinnipiac St., Bldg. 40, Wallingford CT 06492
  
  
 ---------------------------------------------------------------
 Warning -- This program may not be used in any manner that
 competes with the business of Gaussian, Inc. or will provide
 assistance to any competitor of Gaussian, Inc.  The licensee
 of this program is prohibited from giving any competitor of
 Gaussian, Inc. access to this program.  By using this program,
 the user acknowledges that Gaussian, Inc. is engaged in the
 business of creating and licensing software in the field of
 computational chemistry and represents and warrants to the
 licensee that it is not a competitor of Gaussian, Inc. and that
 it will not use this program in any manner prohibited above.
 ---------------------------------------------------------------
  

 Cite this work as:
 Gaussian Development Version, Revision J.26+,
 M. J. Frisch, G. W. Trucks, G. Scalmani, J. R. Cheeseman, X. Li, 
 J. Bloino, B. G. Janesko, A. V. Marenich, J. Zheng, F. Lipparini, 
 A. Jenkins, A. Liu, H. Liu, H. B. Schlegel, G. E. Scuseria, 
 M. A. Robb, V. Barone, G. A. Petersson, H. Nakatsuji, B. Mennucci, 
 C. Adamo, N. Rega, M. Caricato, H. P. Hratchian, J. V. Ortiz, 
 A. F. Izmaylov, H. Hu, C. Liao, J. L. Sonnenberg, D. Williams-Young, 
 F. Ding, R. Gomperts, F. Egidi, J. Goings, B. Peng, A. Petrone, 
 T. Henderson, D. Ranasinghe, V. G. Zakrzewski, J. Gao, G. Zheng, 
 W. Liang, M. Hada, M. Ehara, K. Toyota, R. Fukuda, J. Hasegawa, 
 M. Ishida, T. Nakajima, Y. Honda, O. Kitao, H. Nakai, T. Vreven, 
 K. Throssell, J. A. Montgomery, Jr., J. E. Peralta, F. Ogliaro, 
 M. J. Bearpark, J. J. Heyd, E. N. Brothers, K. N. Kudin, 
 V. N. Staroverov, T. A. Keith, R. Kobayashi, J. Normand, 
 K. Raghavachari, A. P. Rendell, J. C. Burant, S. S. Iyengar, 
 M. Cossi, J. M. Millam, M. Klene, R. Cammi, R. L. Martin, O. Farkas, 
 J. B. Foresman, and D. J. Fox, Gaussian, Inc., Wallingford CT, 2023.
 
 *******************************************
 Gaussian DV:  ES64L-GDVRevJ.26+  9-Sep-2023
                 21-Feb-2024 
 *******************************************
 %chk=h2o_dipole_gs.chk
 ----------------------------------------------------------------------
 #P ublyp 6-31G pop=orbitals=20 opt output=(mat,AO2Electronintegrals) g
 uess=save geom=modela
 ----------------------------------------------------------------------
 1/18=20,19=15,26=4,29=4,37=210000000,38=1/1,3;
 2/9=110,12=2/2;
 3/5=1,6=6,11=2,25=20,28=1,30=1,71=1,74=4002,116=2/1,2,3,8,20;
 4//1;
 5/5=1/2;
 6/7=2,8=2,9=2,10=2,28=1,96=20/1;
 7//1,2,3,16;
 1/18=20,19=15,26=4/3(2);
 2/9=110/2;
 99/6=100000/99;
 2/9=110/2;
 3/5=1,6=6,11=2,25=20,28=1,30=1,71=1,74=4002,116=2/1,2,3,8,20;
 4/5=5,16=3,69=1/1;
 5/5=1,38=5/2;
 7//1,2,3,16;
 1/18=20,19=15,26=4/3(-5);
 2/9=110/2;
 6/7=2,8=2,9=2,10=2,19=2,28=1,96=20/1;
 99/6=100000,9=1/99;
 Leave Link    1 at Wed Feb 21 13:47:11 2024, MaxMem=           0 cpu:               0.1 elap:               0.1
 (Enter /opt/gaussian/gdv-20240213-j26+/gdv/l101.exe)
 ---
 h2o
 ---
 Charge =     0 Multiplicity =     1
 Model A used to generate z-matrix:
 Short formula matrix:
   Atom   Symbol  Geom  Angle Array F
    1        O    Bent         2   3
    2        H                 1   0
    3        H                 1   0
 Generated Z-Matrix:
 O
 H,1,R2
 H,1,R2,2,A3
      Variables:
 R2=0.96
 A3=109.47122063
     1 tetrahedral angles replaced.
 ITRead=  0  0  0
 MicOpt= -1 -1 -1
 NAtoms=      3 NQM=        3 NQMF=       0 NMMI=      0 NMMIF=      0
                NMic=       0 NMicF=      0.
                    Isotopes and Nuclear Properties:
 (Nuclear quadrupole moments (NQMom) in fm**2, nuclear magnetic moments (NMagM)
  in nuclear magnetons)

  Atom         1           2           3
 IAtWgt=          16           1           1
 AtmWgt=  15.9949146   1.0078250   1.0078250
 NucSpn=           0           1           1
 AtZEff=  -0.0000000  -0.0000000  -0.0000000
 NQMom=    0.0000000   0.0000000   0.0000000
 NMagM=    0.0000000   2.7928460   2.7928460
 AtZNuc=   8.0000000   1.0000000   1.0000000
 Leave Link  101 at Wed Feb 21 13:47:11 2024, MaxMem=  4294967296 cpu:               0.7 elap:               0.6
 (Enter /opt/gaussian/gdv-20240213-j26+/gdv/l103.exe)

 GradGradGradGradGradGradGradGradGradGradGradGradGradGradGradGradGradGrad
 Berny optimization.
 Initialization pass.
                           ----------------------------
                           !    Initial Parameters    !
                           ! (Angstroms and Degrees)  !
 --------------------------                            --------------------------
 ! Name  Definition              Value          Derivative Info.                !
 --------------------------------------------------------------------------------
 ! R1    R(1,2)                  0.96           estimate D2E/DX2                !
 ! R2    R(1,3)                  0.96           estimate D2E/DX2                !
 ! A1    A(2,1,3)              109.4712         estimate D2E/DX2                !
 --------------------------------------------------------------------------------
 Trust Radius=3.00D-01 FncErr=1.00D-07 GrdErr=1.00D-06 EigMax=2.50D+02 EigMin=1.00D-04
 Number of steps in this run=     20 maximum allowed number of steps=    100.
 GradGradGradGradGradGradGradGradGradGradGradGradGradGradGradGradGradGrad

 Leave Link  103 at Wed Feb 21 13:47:12 2024, MaxMem=  4294967296 cpu:               0.1 elap:               0.1
 (Enter /opt/gaussian/gdv-20240213-j26+/gdv/l202.exe)
                          Input orientation:                          
 ---------------------------------------------------------------------
 Center     Atomic      Atomic             Coordinates (Angstroms)
 Number     Number       Type             X           Y           Z
 ---------------------------------------------------------------------
      1          8           0        0.000000    0.000000    0.000000
      2          1           0        0.000000    0.000000    0.960000
      3          1           0        0.905097    0.000000   -0.320000
 ---------------------------------------------------------------------
                    Distance matrix (angstroms):
                    1          2          3
     1  O    0.000000
     2  H    0.960000   0.000000
     3  H    0.960000   1.567673   0.000000
 Stoichiometry    H2O
 Framework group  C2V[C2(O),SGV(H2)]
 Deg. of freedom     2
 Full point group                 C2V     NOp   4
 Largest Abelian subgroup         C2V     NOp   4
 Largest concise Abelian subgroup C2      NOp   2
                         Standard orientation:                         
 ---------------------------------------------------------------------
 Center     Atomic      Atomic             Coordinates (Angstroms)
 Number     Number       Type             X           Y           Z
 ---------------------------------------------------------------------
      1          8           0       -0.000000    0.000000    0.110851
      2          1           0        0.000000    0.783837   -0.443405
      3          1           0       -0.000000   -0.783837   -0.443405
 ---------------------------------------------------------------------
 Rotational constants (GHZ):         919.0227301         408.0852087         282.5991554
 Leave Link  202 at Wed Feb 21 13:47:12 2024, MaxMem=  4294967296 cpu:               0.1 elap:               0.1
 (Enter /opt/gaussian/gdv-20240213-j26+/gdv/l301.exe)
 Standard basis: 6-31G (6D, 7F)
 Ernie: Thresh=  0.10000D-02 Tol=  0.10000D-05 Strict=F.
 There are     7 symmetry adapted cartesian basis functions of A1  symmetry.
 There are     0 symmetry adapted cartesian basis functions of A2  symmetry.
 There are     2 symmetry adapted cartesian basis functions of B1  symmetry.
 There are     4 symmetry adapted cartesian basis functions of B2  symmetry.
 There are     7 symmetry adapted basis functions of A1  symmetry.
 There are     0 symmetry adapted basis functions of A2  symmetry.
 There are     2 symmetry adapted basis functions of B1  symmetry.
 There are     4 symmetry adapted basis functions of B2  symmetry.
    13 basis functions,    30 primitive gaussians,    13 cartesian basis functions
     5 alpha electrons        5 beta electrons
       nuclear repulsion energy         9.1571759503 Hartrees.
 IExCor=      4002 DFT=T Ex=B Corr=LYP N6=None ScaHFX=  0.000000
 ScaDFX=  1.000000  1.000000  1.000000  1.000000  1.000000  0.000000
 ScaDFX=  0.000000  0.000000  0.000000  0.000000  0.000000  0.000000
 IRadAn=      5 IRanWt=     -1 IRanGd=            0 ICorTp=0 IEmpDi=  4
 NAtoms=    3 NActive=    3 NUniq=    2 SFac= 2.25D+00 NAtFMM=   60 NAOKFM=F Big=F
 Integral buffers will be    131072 words long.
 Raffenetti 2 integral format.
 Two-electron integral symmetry is turned on.
 Leave Link  301 at Wed Feb 21 13:47:12 2024, MaxMem=  4294967296 cpu:               0.2 elap:               0.2
 (Enter /opt/gaussian/gdv-20240213-j26+/gdv/l302.exe)
 NPDir=0 NMtPBC=     1 NCelOv=     1 NCel=       1 NClECP=     1 NCelD=      1
         NCelK=      1 NCelE2=     1 NClLst=     1 CellRange=     0.0.
 One-electron integrals computed using PRISM.
 One-electron integral symmetry used in STVInt
 NBasis=    13 RedAO= T EigKep=  6.95D-02  NBF=     7     0     2     4
 NBsUse=    13 1.00D-06 EigRej= -1.00D+00 NBFU=     7     0     2     4
 Precomputing XC quadrature grid using
 IXCGrd= 4 IRadAn=           5 IRanWt=          -1 IRanGd=           0 AccXCQ= 0.00D+00.
 Generated NRdTot=       0 NPtTot=       68274 NUsed=           0 NTot=          64
 NSgBfM=    13    13    13    13    13 MxSgAt=     3 MxSgA2=     3 SizInc=   0.000
 NMBTot=      624 MaxBatPerAtom=       81 MaxMicBPerAtom=      211 NBfPt=              763643.
 Leave Link  302 at Wed Feb 21 13:47:12 2024, MaxMem=  4294967296 cpu:               0.9 elap:               0.2
 (Enter /opt/gaussian/gdv-20240213-j26+/gdv/l303.exe)
 DipDrv:  MaxL=1.
 Leave Link  303 at Wed Feb 21 13:47:12 2024, MaxMem=  4294967296 cpu:               0.1 elap:               0.1
 (Enter /opt/gaussian/gdv-20240213-j26+/gdv/l308.exe)
 Leave Link  308 at Wed Feb 21 13:47:12 2024, MaxMem=  4294967296 cpu:               0.1 elap:               0.1
 (Enter /opt/gaussian/gdv-20240213-j26+/gdv/l320.exe)
 Enter DskPsm, NBasis=  13 NBas6D=  13 NShell=   7 IDoSP=3 IDer=0 ISMode=2.
 Generating unsorted Raff 2 combos
 Use symmetry via Dacre-Elder procedure.
 NGot=  4294705106 Memory for integrals=  4294697642 for sort=           0.
 Out2e will use a cutoff of  1.00D-10
         1282 integrals produced for a total of         1282.
 Leave Link  320 at Wed Feb 21 13:47:13 2024, MaxMem=  4294967296 cpu:               1.0 elap:               0.2
 (Enter /opt/gaussian/gdv-20240213-j26+/gdv/l401.exe)
 ExpMin= 1.61D-01 ExpMax= 5.48D+03 ExpMxC= 8.25D+02 IAcc=3 IRadAn=         5 AccDes= 0.00D+00
 Harris functional with IExCor= 4002 and IRadAn=       5 diagonalized for initial guess.
 HarFok:  IExCor=    4002 AccDes= 0.00D+00 IRadAn=         5 IDoV= 1 UseB2=F ITyADJ=14 ICtDFT=  3500011
 FoFCou: FMM=F IPFlag=           0 FMFlag=      100000 FMFlg1=           0
         NFxFlg=           0 DoJE=T BraDBF=F KetDBF=T FulRan=T
         wScrn=  0.000000 ICntrl=       500 IOpCl=  0 I1Cent=   200000004 NGrid=           0
         NMat0=    1 NMatS0=      1 NMatT0=    0 NMatD0=    1 NMtDS0=    0 NMtDT0=    0
 Petite list used in FoFCou.
 Harris En= -76.4354838485429    
 JPrj=0 DoOrth=F DoCkMO=F.
 Initial guess orbital symmetries:
 Alpha Orbitals:
       Occupied  (A1) (A1) (B2) (A1) (B1)
       Virtual   (A1) (B2) (A1) (B1) (B2) (A1) (B2) (A1)
 Beta  Orbitals:
       Occupied  (A1) (A1) (B2) (A1) (B1)
       Virtual   (A1) (B2) (A1) (B1) (B2) (A1) (B2) (A1)
 The electronic state of the initial guess is 1-A1.
 Initial guess <Sx>=  0.0000 <Sy>=  0.0000 <Sz>=  0.0000 <S**2>=  -0.0000 S= -0.0000
 Leave Link  401 at Wed Feb 21 13:47:13 2024, MaxMem=  4294967296 cpu:               1.4 elap:               0.2
 (Enter /opt/gaussian/gdv-20240213-j26+/gdv/l502.exe)
 Two-electron integrals will be kept in memory, NGetB=      262724.
 Integral symmetry usage will be decided dynamically.
 UHF open shell SCF:
 Using DIIS extrapolation, IDIIS=  1040.
 NGot=  4294967296 LenX=  4294703253 LenY=  4294702371
 Requested convergence on RMS density matrix=1.00D-08 within 128 cycles.
 Requested convergence on MAX density matrix=1.00D-06.
 Requested convergence on             energy=1.00D-06.
 No special actions if energy rises.

 Cycle   1  Pass 1  IDiag  1:
 E= -76.2816170820874    
 DIIS: error= 9.33D-02 at cycle   1 NSaved=   1.
 NSaved= 1 IEnMin= 1 EnMin= -76.2816170820874     IErMin= 1 ErrMin= 9.33D-02
 ErrMax= 9.33D-02  0.00D+00 EMaxC= 1.00D-01 BMatC= 4.31D-01 BMatP= 4.31D-01
 Rises=F IDIUse=3 WtCom= 6.66D-02 WtEn= 9.33D-01
 Coeff-Com:  0.100D+01
 Coeff-En:   0.100D+01
 Coeff:      0.100D+01
 Gap=     0.099 Goal=   None    Shift=    0.000
 Gap=     0.099 Goal=   None    Shift=    0.000
 GapD=    0.099 DampG=0.500 DampE=0.500 DampFc=0.2500 IDamp=-1.
 Damping current iteration by 2.50D-01
 RMSDP=5.72D-02 MaxDP=2.98D-01              OVMax= 2.43D-01

 Cycle   2  Pass 1  IDiag  1:
 E= -76.3128728238353     Delta-E=       -0.031255741748 Rises=F Damp=T AM=F Ri=F Fa=F
 DIIS: error= 3.00D-02 at cycle   2 NSaved=   2.
 NSaved= 2 IEnMin= 2 EnMin= -76.3128728238353     IErMin= 2 ErrMin= 3.00D-02
 ErrMax= 3.00D-02  0.00D+00 EMaxC= 1.00D-01 BMatC= 3.82D-02 BMatP= 4.31D-01
 Rises=F IDIUse=3 WtCom= 7.00D-01 WtEn= 3.00D-01
 Coeff-Com: -0.410D+00 0.141D+01
 Coeff-En:   0.000D+00 0.100D+01
 Coeff:     -0.287D+00 0.129D+01
 Gap=     0.229 Goal=   None    Shift=    0.000
 Gap=     0.229 Goal=   None    Shift=    0.000
 RMSDP=8.45D-03 MaxDP=3.97D-02 DE=-3.13D-02 OVMax= 1.62D-01

 Cycle   3  Pass 1  IDiag  1:
 E= -76.3636579203838     Delta-E=       -0.050785096548 Rises=F Damp=F AM=F Ri=F Fa=F
 DIIS: error= 1.29D-02 at cycle   3 NSaved=   3.
 NSaved= 3 IEnMin= 3 EnMin= -76.3636579203838     IErMin= 3 ErrMin= 1.29D-02
 ErrMax= 1.29D-02  0.00D+00 EMaxC= 1.00D-01 BMatC= 9.16D-03 BMatP= 3.82D-02
 Rises=F IDIUse=3 WtCom= 8.71D-01 WtEn= 1.29D-01
 Coeff-Com:  0.223D+00-0.250D+00 0.103D+01
 Coeff-En:   0.000D+00 0.000D+00 0.100D+01
 Coeff:      0.194D+00-0.218D+00 0.102D+01
 Gap=     0.255 Goal=   None    Shift=    0.000
 Gap=     0.255 Goal=   None    Shift=    0.000
 RMSDP=2.75D-03 MaxDP=1.27D-02 DE=-5.08D-02 OVMax= 1.30D-02

 Cycle   4  Pass 1  IDiag  1:
 E= -76.3652555930126     Delta-E=       -0.001597672629 Rises=F Damp=F AM=F Ri=F Fa=F
 DIIS: error= 2.15D-03 at cycle   4 NSaved=   4.
 NSaved= 4 IEnMin= 4 EnMin= -76.3652555930126     IErMin= 4 ErrMin= 2.15D-03
 ErrMax= 2.15D-03  0.00D+00 EMaxC= 1.00D-01 BMatC= 2.62D-04 BMatP= 9.16D-03
 Rises=F IDIUse=3 WtCom= 9.90D-01 WtEn= 9.95D-03
 Coeff-Com: -0.303D-02 0.807D-02 0.140D+00 0.855D+00
 Coeff-En:   0.000D+00 0.000D+00 0.000D+00 0.100D+01
 Coeff:     -0.300D-02 0.799D-02 0.138D+00 0.857D+00
 Gap=     0.254 Goal=   None    Shift=    0.000
 Gap=     0.254 Goal=   None    Shift=    0.000
 RMSDP=3.91D-04 MaxDP=1.84D-03 DE=-1.60D-03 OVMax= 1.82D-03

 Cycle   5  Pass 1  IDiag  1:
 E= -76.3653022702193     Delta-E=       -0.000046677207 Rises=F Damp=F AM=F Ri=F Fa=F
 DIIS: error= 1.93D-05 at cycle   5 NSaved=   5.
 NSaved= 5 IEnMin= 5 EnMin= -76.3653022702193     IErMin= 5 ErrMin= 1.93D-05
 ErrMax= 1.93D-05  0.00D+00 EMaxC= 1.00D-01 BMatC= 2.27D-08 BMatP= 2.62D-04
 Rises=F IDIUse=1 WtCom= 1.00D+00 WtEn= 0.00D+00
 Coeff-Com:  0.271D-03-0.623D-03 0.996D-02 0.636D-01 0.927D+00
 Coeff:      0.271D-03-0.623D-03 0.996D-02 0.636D-01 0.927D+00
 Gap=     0.254 Goal=   None    Shift=    0.000
 Gap=     0.254 Goal=   None    Shift=    0.000
 RMSDP=3.72D-06 MaxDP=1.83D-05 DE=-4.67D-05 OVMax= 1.14D-05

 Cycle   6  Pass 1  IDiag  1:
 E= -76.3653022739783     Delta-E=       -0.000000003759 Rises=F Damp=F AM=F Ri=F Fa=F
 DIIS: error= 3.23D-06 at cycle   6 NSaved=   6.
 NSaved= 6 IEnMin= 6 EnMin= -76.3653022739783     IErMin= 6 ErrMin= 3.23D-06
 ErrMax= 3.23D-06  0.00D+00 EMaxC= 1.00D-01 BMatC= 5.25D-10 BMatP= 2.27D-08
 Rises=F IDIUse=1 WtCom= 1.00D+00 WtEn= 0.00D+00
 Coeff-Com:  0.973D-04-0.151D-03 0.693D-03 0.411D-02 0.103D+00 0.892D+00
 Coeff:      0.973D-04-0.151D-03 0.693D-03 0.411D-02 0.103D+00 0.892D+00
 Gap=     0.254 Goal=   None    Shift=    0.000
 Gap=     0.254 Goal=   None    Shift=    0.000
 RMSDP=7.53D-07 MaxDP=3.15D-06 DE=-3.76D-09 OVMax= 4.01D-06

 Cycle   7  Pass 1  IDiag  1:
 E= -76.3653022740862     Delta-E=       -0.000000000108 Rises=F Damp=F AM=F Ri=F Fa=F
 DIIS: error= 3.52D-07 at cycle   7 NSaved=   7.
 NSaved= 7 IEnMin= 7 EnMin= -76.3653022740862     IErMin= 7 ErrMin= 3.52D-07
 ErrMax= 3.52D-07  0.00D+00 EMaxC= 1.00D-01 BMatC= 6.81D-12 BMatP= 5.25D-10
 Rises=F IDIUse=1 WtCom= 1.00D+00 WtEn= 0.00D+00
 Coeff-Com:  0.213D-04-0.313D-04 0.117D-04-0.105D-03 0.128D-01 0.406D-01
 Coeff-Com:  0.947D+00
 Coeff:      0.213D-04-0.313D-04 0.117D-04-0.105D-03 0.128D-01 0.406D-01
 Coeff:      0.947D+00
 Gap=     0.254 Goal=   None    Shift=    0.000
 Gap=     0.254 Goal=   None    Shift=    0.000
 RMSDP=6.82D-08 MaxDP=3.48D-07 DE=-1.08D-10 OVMax= 2.88D-07

 Cycle   8  Pass 1  IDiag  1:
 E= -76.3653022740875     Delta-E=       -0.000000000001 Rises=F Damp=F AM=F Ri=F Fa=F
 DIIS: error= 8.87D-08 at cycle   8 NSaved=   8.
 NSaved= 8 IEnMin= 8 EnMin= -76.3653022740875     IErMin= 8 ErrMin= 8.87D-08
 ErrMax= 8.87D-08  0.00D+00 EMaxC= 1.00D-01 BMatC= 3.90D-13 BMatP= 6.81D-12
 Rises=F IDIUse=1 WtCom= 1.00D+00 WtEn= 0.00D+00
 Coeff-Com:  0.873D-07 0.102D-07-0.669D-05-0.410D-04-0.788D-06-0.236D-01
 Coeff-Com: -0.317D-01 0.106D+01
 Coeff:      0.873D-07 0.102D-07-0.669D-05-0.410D-04-0.788D-06-0.236D-01
 Coeff:     -0.317D-01 0.106D+01
 Gap=     0.254 Goal=   None    Shift=    0.000
 Gap=     0.254 Goal=   None    Shift=    0.000
 RMSDP=2.31D-08 MaxDP=1.04D-07 DE=-1.28D-12 OVMax= 1.20D-07

 Cycle   9  Pass 1  IDiag  1:
 E= -76.3653022740875     Delta-E=       -0.000000000000 Rises=F Damp=F AM=F Ri=F Fa=F
 DIIS: error= 1.93D-11 at cycle   9 NSaved=   9.
 NSaved= 9 IEnMin= 9 EnMin= -76.3653022740875     IErMin= 9 ErrMin= 1.93D-11
 ErrMax= 1.93D-11  0.00D+00 EMaxC= 1.00D-01 BMatC= 1.74D-20 BMatP= 3.90D-13
 Rises=F IDIUse=1 WtCom= 1.00D+00 WtEn= 0.00D+00
 Coeff-Com:  0.859D-09 0.917D-09-0.731D-07-0.442D-06 0.962D-06-0.381D-03
 Coeff-Com: -0.463D-03 0.168D-01 0.984D+00
 Coeff:      0.859D-09 0.917D-09-0.731D-07-0.442D-06 0.962D-06-0.381D-03
 Coeff:     -0.463D-03 0.168D-01 0.984D+00
 Gap=     0.254 Goal=   None    Shift=    0.000
 Skip diagonalization as Alpha Fock matrix is already diagonal.
 Gap=     0.254 Goal=   None    Shift=    0.000
 Skip diagonalization as Beta Fock matrix is already diagonal.
 RMSDP=3.22D-17 MaxDP=2.22D-16 DE=-2.84D-14 OVMax= 1.20D-07

 SCF Done:  E(UB-LYP) =  -76.3653022741     A.U. after    9 cycles
            NFock=  9  Conv=0.32D-16     -V/T= 2.0040
 <Sx>=  0.0000 <Sy>=  0.0000 <Sz>=  0.0000 <S**2>=  -0.0000 S= -0.0000
 <L.S>=  0.00000000000    
 KE=          76.060122 PE=        -199.064535 EE=          37.481934
 Annihilation of the first spin contaminant:
 S**2 before annihilation    -0.0000,   after    -0.0000
 Leave Link  502 at Wed Feb 21 13:47:13 2024, MaxMem=  4294967296 cpu:               1.9 elap:               0.2
 (Enter /opt/gaussian/gdv-20240213-j26+/gdv/l601.exe)
 Copying SCF densities to generalized density rwf, IOpCl= 1 IROHF=0.

 **********************************************************************

            Population analysis using the SCF Density.

 **********************************************************************

 Orbital symmetries:
 Alpha Orbitals:
       Occupied  (A1) (A1) (B2) (A1) (B1)
       Virtual   (A1) (B2) (B2) (A1) (B1) (A1) (B2) (A1)
 Beta  Orbitals:
       Occupied  (A1) (A1) (B2) (A1) (B1)
       Virtual   (A1) (B2) (B2) (A1) (B1) (A1) (B2) (A1)
 The electronic state is 1-A1.
 Alpha  occ. eigenvalues --      -18.77458      -0.91289      -0.47677      -0.27979      -0.22188
 Alpha virt. eigenvalues --        0.03180       0.12036       0.78506       0.80366       0.83725
 Alpha virt. eigenvalues --        0.89039       1.01602       1.35472
  Beta  occ. eigenvalues --      -18.77458      -0.91289      -0.47677      -0.27979      -0.22188
  Beta virt. eigenvalues --        0.03180       0.12036       0.78506       0.80366       0.83725
  Beta virt. eigenvalues --        0.89039       1.01602       1.35472
          Condensed to atoms (all electrons):
               1          2          3
     1  O    8.203551   0.241029   0.241029
     2  H    0.241029   0.452071  -0.035903
     3  H    0.241029  -0.035903   0.452071
          Atomic-Atomic Spin Densities.
               1          2          3
     1  O    0.000000   0.000000   0.000000
     2  H    0.000000   0.000000   0.000000
     3  H    0.000000   0.000000   0.000000
 Mulliken charges and spin densities:
               1          2
     1  O   -0.685608   0.000000
     2  H    0.342804   0.000000
     3  H    0.342804   0.000000
 Sum of Mulliken charges =  -0.00000   0.00000
 Mulliken charges and spin densities with hydrogens summed into heavy atoms:
               1          2
     1  O   -0.000000   0.000000
 Electronic spatial extent (au):  <R**2>=             19.2374
 Charge=             -0.0000 electrons
 Dipole moment (field-independent basis, Debye):
    X=             -0.0000    Y=             -0.0000    Z=             -2.3111  Tot=              2.3111
 Quadrupole moment (field-independent basis, Debye-Ang):
   XX=             -7.1677   YY=             -4.1609   ZZ=             -6.2833
   XY=             -0.0000   XZ=              0.0000   YZ=             -0.0000
 Traceless Quadrupole moment (field-independent basis, Debye-Ang):
   XX=             -1.2970   YY=              1.7097   ZZ=             -0.4127
   XY=             -0.0000   XZ=              0.0000   YZ=             -0.0000
 Octapole moment (field-independent basis, Debye-Ang**2):
  XXX=              0.0000  YYY=             -0.0000  ZZZ=             -1.1959  XYY=             -0.0000
  XXY=              0.0000  XXZ=             -0.3541  XZZ=              0.0000  YZZ=             -0.0000
  YYZ=             -1.0697  XYZ=             -0.0000
 Hexadecapole moment (field-independent basis, Debye-Ang**3):
 XXXX=             -5.1684 YYYY=             -6.1352 ZZZZ=             -6.2649 XXXY=             -0.0000
 XXXZ=             -0.0000 YYYX=             -0.0000 YYYZ=             -0.0000 ZZZX=             -0.0000
 ZZZY=             -0.0000 XXYY=             -2.1214 XXZZ=             -1.9412 YYZZ=             -1.8483
 XXYZ=             -0.0000 YYXZ=              0.0000 ZZXY=             -0.0000
 N-N=           9.157176 E-N=        -199.064535  KE=          76.060122
 Symmetry A1   KE=          67.902408
 Symmetry A2   KE=           0.000000
 Symmetry B1   KE=           4.608858
 Symmetry B2   KE=           3.548856
 Symmetry A1   SP=           0.000000
 Symmetry A2   SP=           0.000000
 Symmetry B1   SP=           0.000000
 Symmetry B2   SP=           0.000000

 Atomic contributions to Alpha molecular orbitals:
 Alpha occ 1 OE=-18.775 is O1-s=0.9995
 Alpha occ 2 OE=-0.913 is O1-s=0.7833
 Alpha occ 3 OE=-0.477 is O1-p=0.5940 H3-s=0.2030 H2-s=0.2030
 Alpha occ 4 OE=-0.280 is O1-p=0.7501 O1-s=0.1597
 Alpha occ 5 OE=-0.222 is O1-p=1.0000
 Alpha vir 6 OE=0.032 is H3-s=0.5305 H2-s=0.5305 O1-s=-0.1438
 Alpha vir 7 OE=0.120 is H3-s=0.4419 H2-s=0.4419 O1-p=0.1163
 Alpha vir 8 OE=0.785 is H3-s=0.4282 H2-s=0.4282 O1-p=0.1436
 Alpha vir 9 OE=0.804 is H3-s=0.3478 H2-s=0.3478 O1-p=0.3045
 Alpha vir 10 OE=0.837 is O1-p=1.0000
 Alpha vir 11 OE=0.890 is O1-p=0.7578
 Alpha vir 12 OE=1.016 is O1-p=1.1461
 Alpha vir 13 OE=1.355 is O1-s=1.1367

 Atomic contributions to Beta  molecular orbitals:
 Beta  occ 1 OE=-18.775 is O1-s=0.9995
 Beta  occ 2 OE=-0.913 is O1-s=0.7833
 Beta  occ 3 OE=-0.477 is O1-p=0.5940 H3-s=0.2030 H2-s=0.2030
 Beta  occ 4 OE=-0.280 is O1-p=0.7501 O1-s=0.1597
 Beta  occ 5 OE=-0.222 is O1-p=1.0000
 Beta  vir 6 OE=0.032 is H3-s=0.5305 H2-s=0.5305 O1-s=-0.1438
 Beta  vir 7 OE=0.120 is H3-s=0.4419 H2-s=0.4419 O1-p=0.1163
 Beta  vir 8 OE=0.785 is H3-s=0.4282 H2-s=0.4282 O1-p=0.1436
 Beta  vir 9 OE=0.804 is H3-s=0.3478 H2-s=0.3478 O1-p=0.3045
 Beta  vir 10 OE=0.837 is O1-p=1.0000
 Beta  vir 11 OE=0.890 is O1-p=0.7578
 Beta  vir 12 OE=1.016 is O1-p=1.1461
 Beta  vir 13 OE=1.355 is O1-s=1.1367
 
                          Isotropic Fermi Contact Couplings
        Atom                 a.u.       MegaHertz       Gauss      10(-4) cm-1
     1  O(17)              0.00000      -0.00000      -0.00000      -0.00000
     2  H(1)               0.00000       0.00000       0.00000       0.00000
     3  H(1)               0.00000       0.00000       0.00000       0.00000
 --------------------------------------------------------
       Center         ----  Spin Dipole Couplings  ----
                      3XX-RR        3YY-RR        3ZZ-RR
 --------------------------------------------------------
     1   Atom        0.000000      0.000000      0.000000
     2   Atom        0.000000      0.000000      0.000000
     3   Atom        0.000000      0.000000      0.000000
 --------------------------------------------------------
                        XY            XZ            YZ
 --------------------------------------------------------
     1   Atom        0.000000      0.000000      0.000000
     2   Atom        0.000000      0.000000      0.000000
     3   Atom        0.000000      0.000000      0.000000
 --------------------------------------------------------


 ---------------------------------------------------------------------------------
              Anisotropic Spin Dipole Couplings in Principal Axis System
 ---------------------------------------------------------------------------------

       Atom             a.u.   MegaHertz   Gauss  10(-4) cm-1        Axes

              Baa     0.0000    -0.000    -0.000    -0.000  1.0000  0.0000  0.0000
     1 O(17)  Bbb     0.0000    -0.000    -0.000    -0.000 -0.0000  1.0000  0.0000
              Bcc     0.0000    -0.000    -0.000    -0.000  0.0000  0.0000  1.0000
 
              Baa     0.0000     0.000     0.000     0.000  1.0000  0.0000  0.0000
     2 H(1)   Bbb     0.0000     0.000     0.000     0.000 -0.0000  1.0000  0.0000
              Bcc     0.0000     0.000     0.000     0.000  0.0000  0.0000  1.0000
 
              Baa     0.0000     0.000     0.000     0.000  1.0000  0.0000  0.0000
     3 H(1)   Bbb     0.0000     0.000     0.000     0.000 -0.0000  1.0000  0.0000
              Bcc     0.0000     0.000     0.000     0.000  0.0000  0.0000  1.0000
 

 ---------------------------------------------------------------------------------

 No NMR shielding tensors so no spin-rotation constants.
 Leave Link  601 at Wed Feb 21 13:47:14 2024, MaxMem=  4294967296 cpu:               0.9 elap:               0.2
 (Enter /opt/gaussian/gdv-20240213-j26+/gdv/l701.exe)
 ... and contract with generalized density number  0.
 Compute integral first derivatives.
 Leave Link  701 at Wed Feb 21 13:47:14 2024, MaxMem=  4294967296 cpu:               1.1 elap:               0.2
 (Enter /opt/gaussian/gdv-20240213-j26+/gdv/l702.exe)
 L702 exits ... SP integral derivatives will be done elsewhere.
 Leave Link  702 at Wed Feb 21 13:47:14 2024, MaxMem=  4294967296 cpu:               0.1 elap:               0.1
 (Enter /opt/gaussian/gdv-20240213-j26+/gdv/l703.exe)
 Integral derivatives from FoFJK, PRISM(SPDF).
 Compute integral first derivatives, UseDBF=F ICtDFT=           0.
 Calling FoFJK, ICntrl=      2527 FMM=F ISym2X=1 I1Cent= 0 IOpClX= 0 NMat=1 NMatS=1 NMatT=0.
 FoFJK:  IHMeth= 1 ICntrl=    2527 DoSepK=F KAlg= 0 I1Cent=           0 FoldK=F
 IRaf=         0 NMat=       1 IRICut=       1 DoRegI=T DoRafI=F ISym2E= 1 IDoP0=0 IntGTp=1.
 FoFCou: FMM=F IPFlag=           0 FMFlag=      100000 FMFlg1=         800
         NFxFlg=           0 DoJE=F BraDBF=F KetDBF=F FulRan=T
         wScrn=  0.000000 ICntrl=      2527 IOpCl=  0 I1Cent=           0 NGrid=           0
         NMat0=    1 NMatS0=      1 NMatT0=    0 NMatD0=    1 NMtDS0=    0 NMtDT0=    0
 Petite list used in FoFCou.
 Leave Link  703 at Wed Feb 21 13:47:14 2024, MaxMem=  4294967296 cpu:               1.2 elap:               0.2
 (Enter /opt/gaussian/gdv-20240213-j26+/gdv/l716.exe)
 Dipole        =-5.86417597D-17 0.00000000D+00-9.09266048D-01
 ***** Axes restored to original set *****
 -------------------------------------------------------------------
 Center     Atomic                   Forces (Hartrees/Bohr)
 Number     Number              X              Y              Z
 -------------------------------------------------------------------
      1        8          -0.025182097    0.000000000   -0.017806432
      2        1           0.001683947   -0.000000000    0.024328186
      3        1           0.023498150   -0.000000000   -0.006521755
 -------------------------------------------------------------------
 Cartesian Forces:  Max     0.025182097 RMS     0.015422205
 Leave Link  716 at Wed Feb 21 13:47:15 2024, MaxMem=  4294967296 cpu:               0.1 elap:               0.1
 (Enter /opt/gaussian/gdv-20240213-j26+/gdv/l103.exe)

 GradGradGradGradGradGradGradGradGradGradGradGradGradGradGradGradGradGrad
 Berny optimization.
 FormGI is forming the generalized inverse of G from B-inverse, IUseBI=4.
 Internal  Forces:  Max     0.024328186 RMS     0.019942031
 Search for a local minimum.
 Step number   1 out of a maximum of   20
 All quantities printed in internal units (Hartrees-Bohrs-Radians)
 RMS Force = .19942D-01 SwitMx=.10000D-02 MixMth= 1
 Mixed Optimization -- RFO/linear search
 Second derivative matrix not updated -- first step.
 The second derivative matrix:
                          R1        R2        A1
           R1           0.55473
           R2           0.00000   0.55473
           A1           0.00000   0.00000   0.16000
 ITU=  0
     Eigenvalues ---    0.16000   0.55473   0.55473
 RFO step:  Lambda=-2.18303236D-03 EMin= 1.60000000D-01
 Linear search not attempted -- first point.
 Iteration  1 RMS(Cart)=  0.01617448 RMS(Int)=  0.00026392
 Iteration  2 RMS(Cart)=  0.00016363 RMS(Int)=  0.00000004
 Iteration  3 RMS(Cart)=  0.00000002 RMS(Int)=  0.00000000
 ClnCor:  largest displacement from symmetrization is 6.34D-16 for atom     1.
 Variable       Old X    -DE/DX   Delta X   Delta X   Delta X     New X
                                 (Linear)    (Quad)   (Total)
    R1        1.81414   0.02433   0.00000   0.04368   0.04368   1.85782
    R2        1.81414   0.02433   0.00000   0.04368   0.04368   1.85782
    A1        1.91063  -0.00305   0.00000  -0.01884  -0.01884   1.89180
         Item               Value     Threshold  Converged?
 Maximum Force            0.024328     0.000450     NO 
 RMS     Force            0.019942     0.000300     NO 
 Maximum Displacement     0.028413     0.001800     NO 
 RMS     Displacement     0.027919     0.001200     NO 
 Predicted change in Energy=-1.096069D-03
 Lowest energy point so far.  Saving SCF results.
 GradGradGradGradGradGradGradGradGradGradGradGradGradGradGradGradGradGrad

 Leave Link  103 at Wed Feb 21 13:47:15 2024, MaxMem=  4294967296 cpu:               0.1 elap:               0.1
 (Enter /opt/gaussian/gdv-20240213-j26+/gdv/l202.exe)
                          Input orientation:                          
 ---------------------------------------------------------------------
 Center     Atomic      Atomic             Coordinates (Angstroms)
 Number     Number       Type             X           Y           Z
 ---------------------------------------------------------------------
      1          8           0       -0.011366    0.000000   -0.008037
      2          1           0       -0.002107   -0.000000    0.975036
      3          1           0        0.918570    0.000000   -0.326999
 ---------------------------------------------------------------------
                    Distance matrix (angstroms):
                    1          2          3
     1  O    0.000000
     2  H    0.983116   0.000000
     3  H    0.983116   1.594660   0.000000
 Stoichiometry    H2O
 Framework group  C2V[C2(O),SGV(H2)]
 Deg. of freedom     2
 Full point group                 C2V     NOp   4
 RotChk:  IX=0 Diff= 9.82D-16
 Largest Abelian subgroup         C2V     NOp   4
 Largest concise Abelian subgroup C2      NOp   2
                         Standard orientation:                         
 ---------------------------------------------------------------------
 Center     Atomic      Atomic             Coordinates (Angstroms)
 Number     Number       Type             X           Y           Z
 ---------------------------------------------------------------------
      1          8           0        0.000000    0.000000    0.115027
      2          1           0        0.000000    0.797330   -0.460110
      3          1           0       -0.000000   -0.797330   -0.460110
 ---------------------------------------------------------------------
 Rotational constants (GHZ):         853.5018599         394.3900320         269.7450220
 Leave Link  202 at Wed Feb 21 13:47:15 2024, MaxMem=  4294967296 cpu:               0.1 elap:               0.1
 (Enter /opt/gaussian/gdv-20240213-j26+/gdv/l301.exe)
 Standard basis: 6-31G (6D, 7F)
 Ernie: Thresh=  0.10000D-02 Tol=  0.10000D-05 Strict=F.
 There are     7 symmetry adapted cartesian basis functions of A1  symmetry.
 There are     0 symmetry adapted cartesian basis functions of A2  symmetry.
 There are     2 symmetry adapted cartesian basis functions of B1  symmetry.
 There are     4 symmetry adapted cartesian basis functions of B2  symmetry.
 There are     7 symmetry adapted basis functions of A1  symmetry.
 There are     0 symmetry adapted basis functions of A2  symmetry.
 There are     2 symmetry adapted basis functions of B1  symmetry.
 There are     4 symmetry adapted basis functions of B2  symmetry.
    13 basis functions,    30 primitive gaussians,    13 cartesian basis functions
     5 alpha electrons        5 beta electrons
       nuclear repulsion energy         8.9440842617 Hartrees.
 IExCor=      4002 DFT=T Ex=B Corr=LYP N6=None ScaHFX=  0.000000
 ScaDFX=  1.000000  1.000000  1.000000  1.000000  1.000000  0.000000
 ScaDFX=  0.000000  0.000000  0.000000  0.000000  0.000000  0.000000
 IRadAn=      5 IRanWt=     -1 IRanGd=            0 ICorTp=0 IEmpDi=  4
 NAtoms=    3 NActive=    3 NUniq=    2 SFac= 2.25D+00 NAtFMM=   60 NAOKFM=F Big=F
 Integral buffers will be    131072 words long.
 Raffenetti 2 integral format.
 Two-electron integral symmetry is turned on.
 Leave Link  301 at Wed Feb 21 13:47:15 2024, MaxMem=  4294967296 cpu:               0.2 elap:               0.1
 (Enter /opt/gaussian/gdv-20240213-j26+/gdv/l302.exe)
 NPDir=0 NMtPBC=     1 NCelOv=     1 NCel=       1 NClECP=     1 NCelD=      1
         NCelK=      1 NCelE2=     1 NClLst=     1 CellRange=     0.0.
 One-electron integrals computed using PRISM.
 One-electron integral symmetry used in STVInt
 NBasis=    13 RedAO= T EigKep=  7.25D-02  NBF=     7     0     2     4
 NBsUse=    13 1.00D-06 EigRej= -1.00D+00 NBFU=     7     0     2     4
 Precomputing XC quadrature grid using
 IXCGrd= 4 IRadAn=           5 IRanWt=          -1 IRanGd=           0 AccXCQ= 0.00D+00.
 Generated NRdTot=       0 NPtTot=       68351 NUsed=           0 NTot=          64
 NSgBfM=    13    13    13    13    13 MxSgAt=     3 MxSgA2=     3 SizInc=   0.000
 NMBTot=      617 MaxBatPerAtom=       81 MaxMicBPerAtom=      210 NBfPt=              766236.
 Leave Link  302 at Wed Feb 21 13:47:15 2024, MaxMem=  4294967296 cpu:               0.9 elap:               0.2
 (Enter /opt/gaussian/gdv-20240213-j26+/gdv/l303.exe)
 DipDrv:  MaxL=1.
 Leave Link  303 at Wed Feb 21 13:47:15 2024, MaxMem=  4294967296 cpu:               0.1 elap:               0.1
 (Enter /opt/gaussian/gdv-20240213-j26+/gdv/l308.exe)
 Leave Link  308 at Wed Feb 21 13:47:15 2024, MaxMem=  4294967296 cpu:               0.1 elap:               0.1
 (Enter /opt/gaussian/gdv-20240213-j26+/gdv/l320.exe)
 Enter DskPsm, NBasis=  13 NBas6D=  13 NShell=   7 IDoSP=3 IDer=0 ISMode=2.
 Generating unsorted Raff 2 combos
 Use symmetry via Dacre-Elder procedure.
 NGot=  4294705106 Memory for integrals=  4294697642 for sort=           0.
 Out2e will use a cutoff of  1.00D-10
         1282 integrals produced for a total of         1282.
 Leave Link  320 at Wed Feb 21 13:47:15 2024, MaxMem=  4294967296 cpu:               0.8 elap:               0.1
 (Enter /opt/gaussian/gdv-20240213-j26+/gdv/l401.exe)
 Initial guess from the checkpoint file:  "h2o_dipole_gs.chk"
 B after Tr=    -0.000000    0.000000    0.000000
         Rot=    1.000000    0.000000    0.000000    0.000000 Ang=   0.00 deg.
 AO Guess basis will be translated and rotated to current coordinates.
 JPrj=2 DoOrth=T DoCkMO=T.
 Initial guess orbital symmetries:
 Alpha Orbitals:
       Occupied  (A1) (A1) (B2) (A1) (B1)
       Virtual   (A1) (B2) (B2) (A1) (B1) (A1) (B2) (A1)
 Beta  Orbitals:
       Occupied  (A1) (A1) (B2) (A1) (B1)
       Virtual   (A1) (B2) (B2) (A1) (B1) (A1) (B2) (A1)
 The electronic state of the initial guess is 1-A1.
 Initial guess <Sx>=  0.0000 <Sy>=  0.0000 <Sz>=  0.0000 <S**2>=  -0.0000 S= -0.0000
 Generating alternative initial guess.
 ExpMin= 1.61D-01 ExpMax= 5.48D+03 ExpMxC= 8.25D+02 IAcc=3 IRadAn=         5 AccDes= 0.00D+00
 Harris functional with IExCor= 4002 and IRadAn=       5 diagonalized for initial guess.
 HarFok:  IExCor=    4002 AccDes= 0.00D+00 IRadAn=         5 IDoV= 1 UseB2=F ITyADJ=14 ICtDFT=  3500011
 FoFCou: FMM=F IPFlag=           0 FMFlag=      100000 FMFlg1=           0
         NFxFlg=           0 DoJE=T BraDBF=F KetDBF=T FulRan=T
         wScrn=  0.000000 ICntrl=       500 IOpCl=  0 I1Cent=   200000004 NGrid=           0
         NMat0=    1 NMatS0=      1 NMatT0=    0 NMatD0=    1 NMtDS0=    0 NMtDT0=    0
 Petite list used in FoFCou.
 Harris En= -76.4340671726161    
 Leave Link  401 at Wed Feb 21 13:47:16 2024, MaxMem=  4294967296 cpu:               1.5 elap:               0.3
 (Enter /opt/gaussian/gdv-20240213-j26+/gdv/l502.exe)
 Two-electron integrals will be kept in memory, NGetB=      262724.
 Integral symmetry usage will be decided dynamically.
 UHF open shell SCF:
 Using DIIS extrapolation, IDIIS=  1040.
 NGot=  4294967296 LenX=  4294703253 LenY=  4294702371
 Requested convergence on RMS density matrix=1.00D-08 within 128 cycles.
 Requested convergence on MAX density matrix=1.00D-06.
 Requested convergence on             energy=1.00D-06.
 No special actions if energy rises.

 Cycle   1  Pass 1  IDiag  1:
 E= -76.3661820268135    
 DIIS: error= 4.28D-03 at cycle   1 NSaved=   1.
 NSaved= 1 IEnMin= 1 EnMin= -76.3661820268135     IErMin= 1 ErrMin= 4.28D-03
 ErrMax= 4.28D-03  0.00D+00 EMaxC= 1.00D-01 BMatC= 1.12D-03 BMatP= 1.12D-03
 Rises=F IDIUse=3 WtCom= 9.72D-01 WtEn= 2.80D-02
 Coeff-Com:  0.100D+01
 Coeff-En:   0.100D+01
 Coeff:      0.100D+01
 Gap=     0.242 Goal=   None    Shift=    0.000
 Gap=     0.242 Goal=   None    Shift=    0.000
 GapD=    0.242 DampG=1.000 DampE=1.000 DampFc=1.0000 IDamp=-1.
 RMSDP=2.81D-03 MaxDP=1.40D-02              OVMax= 1.68D-02

 Cycle   2  Pass 1  IDiag  1:
 E= -76.3663198883891     Delta-E=       -0.000137861576 Rises=F Damp=F AM=F Ri=F Fa=F
 DIIS: error= 4.80D-03 at cycle   2 NSaved=   2.
 NSaved= 2 IEnMin= 2 EnMin= -76.3663198883891     IErMin= 1 ErrMin= 4.28D-03
 ErrMax= 4.80D-03  0.00D+00 EMaxC= 1.00D-01 BMatC= 1.33D-03 BMatP= 1.12D-03
 Rises=F IDIUse=3 WtCom= 1.26D-01 WtEn= 8.74D-01
 Coeff-Com:  0.529D+00 0.471D+00
 Coeff-En:   0.328D+00 0.672D+00
 Coeff:      0.353D+00 0.647D+00
 Gap=     0.249 Goal=   None    Shift=    0.000
 Gap=     0.249 Goal=   None    Shift=    0.000
 RMSDP=1.83D-03 MaxDP=8.18D-03 DE=-1.38D-04 OVMax= 8.36D-03

 Cycle   3  Pass 1  IDiag  1:
 E= -76.3663926675095     Delta-E=       -0.000072779120 Rises=F Damp=F AM=F Ri=F Fa=F
 DIIS: error= 4.18D-03 at cycle   3 NSaved=   3.
 NSaved= 3 IEnMin= 3 EnMin= -76.3663926675095     IErMin= 3 ErrMin= 4.18D-03
 ErrMax= 4.18D-03  0.00D+00 EMaxC= 1.00D-01 BMatC= 9.79D-04 BMatP= 1.12D-03
 Rises=F IDIUse=3 WtCom= 9.73D-01 WtEn= 2.70D-02
 Coeff-Com:  0.255D-01 0.456D+00 0.519D+00
 Coeff-En:   0.000D+00 0.434D+00 0.566D+00
 Coeff:      0.248D-01 0.455D+00 0.520D+00
 Gap=     0.246 Goal=   None    Shift=    0.000
 Gap=     0.246 Goal=   None    Shift=    0.000
 RMSDP=7.94D-04 MaxDP=3.66D-03 DE=-7.28D-05 OVMax= 3.70D-03

 Cycle   4  Pass 1  IDiag  1:
 E= -76.3665713126341     Delta-E=       -0.000178645125 Rises=F Damp=F AM=F Ri=F Fa=F
 DIIS: error= 3.22D-05 at cycle   4 NSaved=   4.
 NSaved= 4 IEnMin= 4 EnMin= -76.3665713126341     IErMin= 4 ErrMin= 3.22D-05
 ErrMax= 3.22D-05  0.00D+00 EMaxC= 1.00D-01 BMatC= 3.99D-08 BMatP= 9.79D-04
 Rises=F IDIUse=1 WtCom= 1.00D+00 WtEn= 0.00D+00
 Coeff-Com:  0.946D-03 0.418D-01 0.435D-01 0.914D+00
 Coeff:      0.946D-03 0.418D-01 0.435D-01 0.914D+00
 Gap=     0.246 Goal=   None    Shift=    0.000
 Gap=     0.246 Goal=   None    Shift=    0.000
 RMSDP=8.11D-06 MaxDP=2.78D-05 DE=-1.79D-04 OVMax= 4.41D-05

 Cycle   5  Pass 1  IDiag  1:
 E= -76.3665713226502     Delta-E=       -0.000000010016 Rises=F Damp=F AM=F Ri=F Fa=F
 DIIS: error= 1.14D-06 at cycle   5 NSaved=   5.
 NSaved= 5 IEnMin= 5 EnMin= -76.3665713226502     IErMin= 5 ErrMin= 1.14D-06
 ErrMax= 1.14D-06  0.00D+00 EMaxC= 1.00D-01 BMatC= 6.84D-11 BMatP= 3.99D-08
 Rises=F IDIUse=1 WtCom= 1.00D+00 WtEn= 0.00D+00
 Coeff-Com:  0.207D-04 0.289D-02 0.273D-02 0.833D-01 0.911D+00
 Coeff:      0.207D-04 0.289D-02 0.273D-02 0.833D-01 0.911D+00
 Gap=     0.246 Goal=   None    Shift=    0.000
 Gap=     0.246 Goal=   None    Shift=    0.000
 RMSDP=3.32D-07 MaxDP=1.85D-06 DE=-1.00D-08 OVMax= 1.21D-06

 Cycle   6  Pass 1  IDiag  1:
 E= -76.3665713226651     Delta-E=       -0.000000000015 Rises=F Damp=F AM=F Ri=F Fa=F
 DIIS: error= 3.56D-08 at cycle   6 NSaved=   6.
 NSaved= 6 IEnMin= 6 EnMin= -76.3665713226651     IErMin= 6 ErrMin= 3.56D-08
 ErrMax= 3.56D-08  0.00D+00 EMaxC= 1.00D-01 BMatC= 7.88D-14 BMatP= 6.84D-11
 Rises=F IDIUse=1 WtCom= 1.00D+00 WtEn= 0.00D+00
 Coeff-Com:  0.112D-05 0.976D-04 0.872D-04 0.374D-02 0.568D-01 0.939D+00
 Coeff:      0.112D-05 0.976D-04 0.872D-04 0.374D-02 0.568D-01 0.939D+00
 Gap=     0.246 Goal=   None    Shift=    0.000
 Gap=     0.246 Goal=   None    Shift=    0.000
 RMSDP=1.56D-08 MaxDP=4.66D-08 DE=-1.49D-11 OVMax= 7.93D-08

 Cycle   7  Pass 1  IDiag  1:
 E= -76.3665713226652     Delta-E=       -0.000000000000 Rises=F Damp=F AM=F Ri=F Fa=F
 DIIS: error= 1.74D-08 at cycle   7 NSaved=   7.
 NSaved= 7 IEnMin= 7 EnMin= -76.3665713226652     IErMin= 7 ErrMin= 1.74D-08
 ErrMax= 1.74D-08  0.00D+00 EMaxC= 1.00D-01 BMatC= 1.29D-14 BMatP= 7.88D-14
 Rises=F IDIUse=1 WtCom= 1.00D+00 WtEn= 0.00D+00
 Coeff-Com:  0.660D-07 0.329D-05 0.591D-05 0.214D-03 0.303D-02 0.139D+00
 Coeff-Com:  0.858D+00
 Coeff:      0.660D-07 0.329D-05 0.591D-05 0.214D-03 0.303D-02 0.139D+00
 Coeff:      0.858D+00
 Gap=     0.246 Goal=   None    Shift=    0.000
 Gap=     0.246 Goal=   None    Shift=    0.000
 RMSDP=4.41D-09 MaxDP=1.80D-08 DE=-4.26D-14 OVMax= 2.46D-08

 SCF Done:  E(UB-LYP) =  -76.3665713227     A.U. after    7 cycles
            NFock=  7  Conv=0.44D-08     -V/T= 2.0050
 <Sx>=  0.0000 <Sy>=  0.0000 <Sz>=  0.0000 <S**2>=  -0.0000 S= -0.0000
 <L.S>=  0.00000000000    
 KE=          75.986226 PE=        -198.605366 EE=          37.308484
 Annihilation of the first spin contaminant:
 S**2 before annihilation    -0.0000,   after     0.0000
 Leave Link  502 at Wed Feb 21 13:47:16 2024, MaxMem=  4294967296 cpu:               1.4 elap:               0.2
 (Enter /opt/gaussian/gdv-20240213-j26+/gdv/l701.exe)
 ... and contract with generalized density number  0.
 Compute integral first derivatives.
 Leave Link  701 at Wed Feb 21 13:47:16 2024, MaxMem=  4294967296 cpu:               0.9 elap:               0.1
 (Enter /opt/gaussian/gdv-20240213-j26+/gdv/l702.exe)
 L702 exits ... SP integral derivatives will be done elsewhere.
 Leave Link  702 at Wed Feb 21 13:47:16 2024, MaxMem=  4294967296 cpu:               0.1 elap:               0.1
 (Enter /opt/gaussian/gdv-20240213-j26+/gdv/l703.exe)
 Integral derivatives from FoFJK, PRISM(SPDF).
 Compute integral first derivatives, UseDBF=F ICtDFT=           0.
 Calling FoFJK, ICntrl=      2527 FMM=F ISym2X=1 I1Cent= 0 IOpClX= 0 NMat=1 NMatS=1 NMatT=0.
 FoFJK:  IHMeth= 1 ICntrl=    2527 DoSepK=F KAlg= 0 I1Cent=           0 FoldK=F
 IRaf=         0 NMat=       1 IRICut=       1 DoRegI=T DoRafI=F ISym2E= 1 IDoP0=0 IntGTp=1.
 FoFCou: FMM=F IPFlag=           0 FMFlag=      100000 FMFlg1=         800
         NFxFlg=           0 DoJE=F BraDBF=F KetDBF=F FulRan=T
         wScrn=  0.000000 ICntrl=      2527 IOpCl=  0 I1Cent=           0 NGrid=           0
         NMat0=    1 NMatS0=      1 NMatT0=    0 NMatD0=    1 NMtDS0=    0 NMtDT0=    0
 Petite list used in FoFCou.
 Leave Link  703 at Wed Feb 21 13:47:16 2024, MaxMem=  4294967296 cpu:               1.0 elap:               0.2
 (Enter /opt/gaussian/gdv-20240213-j26+/gdv/l716.exe)
 Dipole        =-5.94780217D-17 8.88178420D-16-9.09830723D-01
 ***** Axes restored to original set *****
 -------------------------------------------------------------------
 Center     Atomic                   Forces (Hartrees/Bohr)
 Number     Number              X              Y              Z
 -------------------------------------------------------------------
      1        8          -0.006452074    0.000000000   -0.004562306
      2        1           0.002185205   -0.000000000    0.003753111
      3        1           0.004266869   -0.000000000    0.000809194
 -------------------------------------------------------------------
 Cartesian Forces:  Max     0.006452074 RMS     0.003336096
 Leave Link  716 at Wed Feb 21 13:47:16 2024, MaxMem=  4294967296 cpu:               0.1 elap:               0.1
 (Enter /opt/gaussian/gdv-20240213-j26+/gdv/l103.exe)

 GradGradGradGradGradGradGradGradGradGradGradGradGradGradGradGradGradGrad
 Berny optimization.
 Using GEDIIS/GDIIS optimizer.
 FormGI is forming the generalized inverse of G from B-inverse, IUseBI=4.
 Internal  Forces:  Max     0.003993872 RMS     0.003848376
 Search for a local minimum.
 Step number   2 out of a maximum of   20
 All quantities printed in internal units (Hartrees-Bohrs-Radians)
 RMS Force = .38484D-02 SwitMx=.10000D-02 MixMth= 1
 Mixed Optimization -- RFO/linear search
 Update second derivatives using D2CorX and points    1    2
 DE= -1.27D-03 DEPred=-1.10D-03 R= 1.16D+00
 TightC=F SS=  1.41D+00  RLast= 6.46D-02 DXNew= 5.0454D-01 1.9376D-01
 Trust test= 1.16D+00 RLast= 6.46D-02 DXMaxT set to 3.00D-01
 The second derivative matrix:
                          R1        R2        A1
           R1           0.52222
           R2          -0.03252   0.52222
           A1           0.04445   0.04445   0.15632
 ITU=  1  0
 Use linear search instead of GDIIS.
     Eigenvalues ---    0.14486   0.50116   0.55473
 RFO step:  Lambda=-1.26566778D-04 EMin= 1.44859021D-01
 Quartic linear search produced a step of  0.25393.
 Iteration  1 RMS(Cart)=  0.00966510 RMS(Int)=  0.00024546
 Iteration  2 RMS(Cart)=  0.00015455 RMS(Int)=  0.00000002
 Iteration  3 RMS(Cart)=  0.00000001 RMS(Int)=  0.00000000
 ClnCor:  largest displacement from symmetrization is 1.82D-15 for atom     1.
 Variable       Old X    -DE/DX   Delta X   Delta X   Delta X     New X
                                 (Linear)    (Quad)   (Total)
    R1        1.85782   0.00377   0.01109   0.00066   0.01175   1.86957
    R2        1.85782   0.00377   0.01109   0.00066   0.01175   1.86957
    A1        1.89180  -0.00399  -0.00478  -0.02877  -0.03355   1.85824
         Item               Value     Threshold  Converged?
 Maximum Force            0.003994     0.000450     NO 
 RMS     Force            0.003848     0.000300     NO 
 Maximum Displacement     0.017503     0.001800     NO 
 RMS     Displacement     0.016858     0.001200     NO 
 Predicted change in Energy=-1.021331D-04
 Lowest energy point so far.  Saving SCF results.
 GradGradGradGradGradGradGradGradGradGradGradGradGradGradGradGradGradGrad

 Leave Link  103 at Wed Feb 21 13:47:16 2024, MaxMem=  4294967296 cpu:               0.1 elap:               0.0
 (Enter /opt/gaussian/gdv-20240213-j26+/gdv/l202.exe)
                          Input orientation:                          
 ---------------------------------------------------------------------
 Center     Atomic      Atomic             Coordinates (Angstroms)
 Number     Number       Type             X           Y           Z
 ---------------------------------------------------------------------
      1          8           0       -0.020629    0.000000   -0.014587
      2          1           0        0.005284   -0.000000    0.974407
      3          1           0        0.920441    0.000000   -0.319821
 ---------------------------------------------------------------------
                    Distance matrix (angstroms):
                    1          2          3
     1  O    0.000000
     2  H    0.989333   0.000000
     3  H    0.989333   1.585099   0.000000
 Stoichiometry    H2O
 Framework group  C2V[C2(O),SGV(H2)]
 Deg. of freedom     2
 Full point group                 C2V     NOp   4
 RotChk:  IX=0 Diff= 1.20D-15
 Largest Abelian subgroup         C2V     NOp   4
 Largest concise Abelian subgroup C2      NOp   2
                         Standard orientation:                         
 ---------------------------------------------------------------------
 Center     Atomic      Atomic             Coordinates (Angstroms)
 Number     Number       Type             X           Y           Z
 ---------------------------------------------------------------------
      1          8           0       -0.000000    0.000000    0.118431
      2          1           0       -0.000000    0.792549   -0.473723
      3          1           0       -0.000000   -0.792549   -0.473723
 ---------------------------------------------------------------------
 Rotational constants (GHZ):         805.1540361         399.1622434         266.8626978
 Leave Link  202 at Wed Feb 21 13:47:16 2024, MaxMem=  4294967296 cpu:               0.1 elap:               0.1
 (Enter /opt/gaussian/gdv-20240213-j26+/gdv/l301.exe)
 Standard basis: 6-31G (6D, 7F)
 Ernie: Thresh=  0.10000D-02 Tol=  0.10000D-05 Strict=F.
 There are     7 symmetry adapted cartesian basis functions of A1  symmetry.
 There are     0 symmetry adapted cartesian basis functions of A2  symmetry.
 There are     2 symmetry adapted cartesian basis functions of B1  symmetry.
 There are     4 symmetry adapted cartesian basis functions of B2  symmetry.
 There are     7 symmetry adapted basis functions of A1  symmetry.
 There are     0 symmetry adapted basis functions of A2  symmetry.
 There are     2 symmetry adapted basis functions of B1  symmetry.
 There are     4 symmetry adapted basis functions of B2  symmetry.
    13 basis functions,    30 primitive gaussians,    13 cartesian basis functions
     5 alpha electrons        5 beta electrons
       nuclear repulsion energy         8.8919684050 Hartrees.
 IExCor=      4002 DFT=T Ex=B Corr=LYP N6=None ScaHFX=  0.000000
 ScaDFX=  1.000000  1.000000  1.000000  1.000000  1.000000  0.000000
 ScaDFX=  0.000000  0.000000  0.000000  0.000000  0.000000  0.000000
 IRadAn=      5 IRanWt=     -1 IRanGd=            0 ICorTp=0 IEmpDi=  4
 NAtoms=    3 NActive=    3 NUniq=    2 SFac= 2.25D+00 NAtFMM=   60 NAOKFM=F Big=F
 Integral buffers will be    131072 words long.
 Raffenetti 2 integral format.
 Two-electron integral symmetry is turned on.
 Leave Link  301 at Wed Feb 21 13:47:16 2024, MaxMem=  4294967296 cpu:               0.1 elap:               0.1
 (Enter /opt/gaussian/gdv-20240213-j26+/gdv/l302.exe)
 NPDir=0 NMtPBC=     1 NCelOv=     1 NCel=       1 NClECP=     1 NCelD=      1
         NCelK=      1 NCelE2=     1 NClLst=     1 CellRange=     0.0.
 One-electron integrals computed using PRISM.
 One-electron integral symmetry used in STVInt
 NBasis=    13 RedAO= T EigKep=  7.29D-02  NBF=     7     0     2     4
 NBsUse=    13 1.00D-06 EigRej= -1.00D+00 NBFU=     7     0     2     4
 Precomputing XC quadrature grid using
 IXCGrd= 4 IRadAn=           5 IRanWt=          -1 IRanGd=           0 AccXCQ= 0.00D+00.
 Generated NRdTot=       0 NPtTot=       68362 NUsed=           0 NTot=          64
 NSgBfM=    13    13    13    13    13 MxSgAt=     3 MxSgA2=     3 SizInc=   0.000
 NMBTot=      625 MaxBatPerAtom=       82 MaxMicBPerAtom=      210 NBfPt=              766336.
 Leave Link  302 at Wed Feb 21 13:47:17 2024, MaxMem=  4294967296 cpu:               0.8 elap:               0.1
 (Enter /opt/gaussian/gdv-20240213-j26+/gdv/l303.exe)
 DipDrv:  MaxL=1.
 Leave Link  303 at Wed Feb 21 13:47:17 2024, MaxMem=  4294967296 cpu:               0.1 elap:               0.1
 (Enter /opt/gaussian/gdv-20240213-j26+/gdv/l308.exe)
 Leave Link  308 at Wed Feb 21 13:47:17 2024, MaxMem=  4294967296 cpu:               0.1 elap:               0.1
 (Enter /opt/gaussian/gdv-20240213-j26+/gdv/l320.exe)
 Enter DskPsm, NBasis=  13 NBas6D=  13 NShell=   7 IDoSP=3 IDer=0 ISMode=2.
 Generating unsorted Raff 2 combos
 Use symmetry via Dacre-Elder procedure.
 NGot=  4294705106 Memory for integrals=  4294697642 for sort=           0.
 Out2e will use a cutoff of  1.00D-10
         1282 integrals produced for a total of         1282.
 Leave Link  320 at Wed Feb 21 13:47:17 2024, MaxMem=  4294967296 cpu:               0.8 elap:               0.1
 (Enter /opt/gaussian/gdv-20240213-j26+/gdv/l401.exe)
 Initial guess from the checkpoint file:  "h2o_dipole_gs.chk"
 B after Tr=     0.000000   -0.000000   -0.000000
         Rot=    1.000000    0.000000    0.000000   -0.000000 Ang=   0.00 deg.
 AO Guess basis will be translated and rotated to current coordinates.
 JPrj=2 DoOrth=T DoCkMO=T.
 Initial guess orbital symmetries:
 Alpha Orbitals:
       Occupied  (A1) (A1) (B2) (A1) (B1)
       Virtual   (A1) (B2) (B2) (A1) (B1) (A1) (B2) (A1)
 Beta  Orbitals:
       Occupied  (A1) (A1) (B2) (A1) (B1)
       Virtual   (A1) (B2) (B2) (A1) (B1) (A1) (B2) (A1)
 The electronic state of the initial guess is 1-A1.
 Initial guess <Sx>=  0.0000 <Sy>=  0.0000 <Sz>=  0.0000 <S**2>=  -0.0000 S= -0.0000
 Leave Link  401 at Wed Feb 21 13:47:17 2024, MaxMem=  4294967296 cpu:               0.2 elap:               0.1
 (Enter /opt/gaussian/gdv-20240213-j26+/gdv/l502.exe)
 Two-electron integrals will be kept in memory, NGetB=      262724.
 Integral symmetry usage will be decided dynamically.
 UHF open shell SCF:
 Using DIIS extrapolation, IDIIS=  1040.
 NGot=  4294967296 LenX=  4294703253 LenY=  4294702371
 Requested convergence on RMS density matrix=1.00D-08 within 128 cycles.
 Requested convergence on MAX density matrix=1.00D-06.
 Requested convergence on             energy=1.00D-06.
 No special actions if energy rises.

 Cycle   1  Pass 1  IDiag  1:
 E= -76.3665897843420    
 DIIS: error= 1.92D-03 at cycle   1 NSaved=   1.
 NSaved= 1 IEnMin= 1 EnMin= -76.3665897843420     IErMin= 1 ErrMin= 1.92D-03
 ErrMax= 1.92D-03  0.00D+00 EMaxC= 1.00D-01 BMatC= 1.87D-04 BMatP= 1.87D-04
 Rises=F IDIUse=3 WtCom= 9.92D-01 WtEn= 8.40D-03
 Coeff-Com:  0.100D+01
 Coeff-En:   0.100D+01
 Coeff:      0.100D+01
 Gap=     0.243 Goal=   None    Shift=    0.000
 Gap=     0.243 Goal=   None    Shift=    0.000
 GapD=    0.243 DampG=1.000 DampE=1.000 DampFc=1.0000 IDamp=-1.
 RMSDP=1.39D-03 MaxDP=6.90D-03              OVMax= 7.70D-03

 Cycle   2  Pass 1  IDiag  1:
 E= -76.3666456071029     Delta-E=       -0.000055822761 Rises=F Damp=F AM=F Ri=F Fa=F
 DIIS: error= 1.68D-03 at cycle   2 NSaved=   2.
 NSaved= 2 IEnMin= 2 EnMin= -76.3666456071029     IErMin= 2 ErrMin= 1.68D-03
 ErrMax= 1.68D-03  0.00D+00 EMaxC= 1.00D-01 BMatC= 1.55D-04 BMatP= 1.87D-04
 Rises=F IDIUse=3 WtCom= 9.93D-01 WtEn= 6.89D-03
 Coeff-Com:  0.465D+00 0.535D+00
 Coeff-En:   0.000D+00 0.100D+01
 Coeff:      0.462D+00 0.538D+00
 Gap=     0.245 Goal=   None    Shift=    0.000
 Gap=     0.245 Goal=   None    Shift=    0.000
 RMSDP=5.43D-04 MaxDP=2.47D-03 DE=-5.58D-05 OVMax= 2.61D-03

 Cycle   3  Pass 1  IDiag  1:
 E= -76.3666667936700     Delta-E=       -0.000021186567 Rises=F Damp=F AM=F Ri=F Fa=F
 DIIS: error= 9.36D-04 at cycle   3 NSaved=   3.
 NSaved= 3 IEnMin= 3 EnMin= -76.3666667936700     IErMin= 3 ErrMin= 9.36D-04
 ErrMax= 9.36D-04  0.00D+00 EMaxC= 1.00D-01 BMatC= 4.98D-05 BMatP= 1.55D-04
 Rises=F IDIUse=3 WtCom= 9.97D-01 WtEn= 2.86D-03
 Coeff-Com:  0.127D-01 0.360D+00 0.627D+00
 Coeff-En:   0.000D+00 0.273D+00 0.727D+00
 Coeff:      0.127D-01 0.360D+00 0.628D+00
 Gap=     0.244 Goal=   None    Shift=    0.000
 Gap=     0.244 Goal=   None    Shift=    0.000
 RMSDP=1.64D-04 MaxDP=7.63D-04 DE=-2.12D-05 OVMax= 7.91D-04

 Cycle   4  Pass 1  IDiag  1:
 E= -76.3666757473339     Delta-E=       -0.000008953664 Rises=F Damp=F AM=F Ri=F Fa=F
 DIIS: error= 3.26D-05 at cycle   4 NSaved=   4.
 NSaved= 4 IEnMin= 4 EnMin= -76.3666757473339     IErMin= 4 ErrMin= 3.26D-05
 ErrMax= 3.26D-05  0.00D+00 EMaxC= 1.00D-01 BMatC= 5.04D-08 BMatP= 4.98D-05
 Rises=F IDIUse=1 WtCom= 1.00D+00 WtEn= 0.00D+00
 Coeff-Com:  0.129D-02 0.609D-01 0.811D-01 0.857D+00
 Coeff:      0.129D-02 0.609D-01 0.811D-01 0.857D+00
 Gap=     0.244 Goal=   None    Shift=    0.000
 Gap=     0.244 Goal=   None    Shift=    0.000
 RMSDP=9.58D-06 MaxDP=2.83D-05 DE=-8.95D-06 OVMax= 5.95D-05

 Cycle   5  Pass 1  IDiag  1:
 E= -76.3666757600452     Delta-E=       -0.000000012711 Rises=F Damp=F AM=F Ri=F Fa=F
 DIIS: error= 8.76D-07 at cycle   5 NSaved=   5.
 NSaved= 5 IEnMin= 5 EnMin= -76.3666757600452     IErMin= 5 ErrMin= 8.76D-07
 ErrMax= 8.76D-07  0.00D+00 EMaxC= 1.00D-01 BMatC= 4.42D-11 BMatP= 5.04D-08
 Rises=F IDIUse=1 WtCom= 1.00D+00 WtEn= 0.00D+00
 Coeff-Com:  0.525D-04 0.596D-02 0.706D-02 0.920D-01 0.895D+00
 Coeff:      0.525D-04 0.596D-02 0.706D-02 0.920D-01 0.895D+00
 Gap=     0.244 Goal=   None    Shift=    0.000
 Gap=     0.244 Goal=   None    Shift=    0.000
 RMSDP=2.26D-07 MaxDP=9.38D-07 DE=-1.27D-08 OVMax= 9.90D-07

 Cycle   6  Pass 1  IDiag  1:
 E= -76.3666757600550     Delta-E=       -0.000000000010 Rises=F Damp=F AM=F Ri=F Fa=F
 DIIS: error= 1.02D-07 at cycle   6 NSaved=   6.
 NSaved= 6 IEnMin= 6 EnMin= -76.3666757600550     IErMin= 6 ErrMin= 1.02D-07
 ErrMax= 1.02D-07  0.00D+00 EMaxC= 1.00D-01 BMatC= 4.33D-13 BMatP= 4.42D-11
 Rises=F IDIUse=1 WtCom= 1.00D+00 WtEn= 0.00D+00
 Coeff-Com:  0.249D-05 0.484D-03 0.488D-03 0.702D-02 0.101D+00 0.891D+00
 Coeff:      0.249D-05 0.484D-03 0.488D-03 0.702D-02 0.101D+00 0.891D+00
 Gap=     0.244 Goal=   None    Shift=    0.000
 Gap=     0.244 Goal=   None    Shift=    0.000
 RMSDP=3.22D-08 MaxDP=1.58D-07 DE=-9.89D-12 OVMax= 1.78D-07

 Cycle   7  Pass 1  IDiag  1:
 E= -76.3666757600552     Delta-E=       -0.000000000000 Rises=F Damp=F AM=F Ri=F Fa=F
 DIIS: error= 3.99D-09 at cycle   7 NSaved=   7.
 NSaved= 7 IEnMin= 7 EnMin= -76.3666757600552     IErMin= 7 ErrMin= 3.99D-09
 ErrMax= 3.99D-09  0.00D+00 EMaxC= 1.00D-01 BMatC= 7.42D-16 BMatP= 4.33D-13
 Rises=F IDIUse=1 WtCom= 1.00D+00 WtEn= 0.00D+00
 Coeff-Com:  0.220D-07 0.116D-04 0.133D-04 0.182D-03 0.311D-02 0.342D-01
 Coeff-Com:  0.962D+00
 Coeff:      0.220D-07 0.116D-04 0.133D-04 0.182D-03 0.311D-02 0.342D-01
 Coeff:      0.962D+00
 Gap=     0.244 Goal=   None    Shift=    0.000
 Gap=     0.244 Goal=   None    Shift=    0.000
 RMSDP=8.43D-10 MaxDP=3.37D-09 DE=-1.42D-13 OVMax= 4.77D-09

 SCF Done:  E(UB-LYP) =  -76.3666757601     A.U. after    7 cycles
            NFock=  7  Conv=0.84D-09     -V/T= 2.0052
 <Sx>=  0.0000 <Sy>=  0.0000 <Sz>=  0.0000 <S**2>=  -0.0000 S= -0.0000
 <L.S>=  0.00000000000    
 KE=          75.971188 PE=        -198.486888 EE=          37.257056
 Annihilation of the first spin contaminant:
 S**2 before annihilation    -0.0000,   after     0.0000
 Leave Link  502 at Wed Feb 21 13:47:17 2024, MaxMem=  4294967296 cpu:               1.4 elap:               0.2
 (Enter /opt/gaussian/gdv-20240213-j26+/gdv/l701.exe)
 ... and contract with generalized density number  0.
 Compute integral first derivatives.
 Leave Link  701 at Wed Feb 21 13:47:17 2024, MaxMem=  4294967296 cpu:               0.8 elap:               0.1
 (Enter /opt/gaussian/gdv-20240213-j26+/gdv/l702.exe)
 L702 exits ... SP integral derivatives will be done elsewhere.
 Leave Link  702 at Wed Feb 21 13:47:17 2024, MaxMem=  4294967296 cpu:               0.1 elap:               0.1
 (Enter /opt/gaussian/gdv-20240213-j26+/gdv/l703.exe)
 Integral derivatives from FoFJK, PRISM(SPDF).
 Compute integral first derivatives, UseDBF=F ICtDFT=           0.
 Calling FoFJK, ICntrl=      2527 FMM=F ISym2X=1 I1Cent= 0 IOpClX= 0 NMat=1 NMatS=1 NMatT=0.
 FoFJK:  IHMeth= 1 ICntrl=    2527 DoSepK=F KAlg= 0 I1Cent=           0 FoldK=F
 IRaf=         0 NMat=       1 IRICut=       1 DoRegI=T DoRafI=F ISym2E= 1 IDoP0=0 IntGTp=1.
 FoFCou: FMM=F IPFlag=           0 FMFlag=      100000 FMFlg1=         800
         NFxFlg=           0 DoJE=F BraDBF=F KetDBF=F FulRan=T
         wScrn=  0.000000 ICntrl=      2527 IOpCl=  0 I1Cent=           0 NGrid=           0
         NMat0=    1 NMatS0=      1 NMatT0=    0 NMatD0=    1 NMtDS0=    0 NMtDT0=    0
 Petite list used in FoFCou.
 Leave Link  703 at Wed Feb 21 13:47:18 2024, MaxMem=  4294967296 cpu:               1.1 elap:               0.2
 (Enter /opt/gaussian/gdv-20240213-j26+/gdv/l716.exe)
 Dipole        =-5.86565948D-17-2.22044605D-16-9.18531168D-01
 ***** Axes restored to original set *****
 -------------------------------------------------------------------
 Center     Atomic                   Forces (Hartrees/Bohr)
 Number     Number              X              Y              Z
 -------------------------------------------------------------------
      1        8           0.000270562    0.000000000    0.000191316
      2        1          -0.000242978   -0.000000000    0.000056648
      3        1          -0.000027585   -0.000000000   -0.000247964
 -------------------------------------------------------------------
 Cartesian Forces:  Max     0.000270562 RMS     0.000161348
 Leave Link  716 at Wed Feb 21 13:47:18 2024, MaxMem=  4294967296 cpu:               0.1 elap:               0.1
 (Enter /opt/gaussian/gdv-20240213-j26+/gdv/l103.exe)

 GradGradGradGradGradGradGradGradGradGradGradGradGradGradGradGradGradGrad
 Berny optimization.
 Using GEDIIS/GDIIS optimizer.
 FormGI is forming the generalized inverse of G from B-inverse, IUseBI=4.
 Internal  Forces:  Max     0.000456881 RMS     0.000266954
 Search for a local minimum.
 Step number   3 out of a maximum of   20
 All quantities printed in internal units (Hartrees-Bohrs-Radians)
 RMS Force = .26695D-03 SwitMx=.10000D-02 MixMth= 2
 Mixed Optimization -- En-DIIS/RFO-DIIS
 Update second derivatives using D2CorX and points    1    2    3
 DE= -1.04D-04 DEPred=-1.02D-04 R= 1.02D+00
 TightC=F SS=  1.41D+00  RLast= 3.74D-02 DXNew= 5.0454D-01 1.1233D-01
 Trust test= 1.02D+00 RLast= 3.74D-02 DXMaxT set to 3.00D-01
 The second derivative matrix:
                          R1        R2        A1
           R1           0.50230
           R2          -0.05244   0.50230
           A1           0.04654   0.04654   0.16524
 ITU=  1  1  0
 Use linear search instead of GDIIS.
     Eigenvalues ---    0.15075   0.46434   0.55473
 RFO step:  Lambda=-4.45552672D-07 EMin= 1.50751429D-01
 Quartic linear search produced a step of -0.05950.
 Iteration  1 RMS(Cart)=  0.00091906 RMS(Int)=  0.00000157
 Iteration  2 RMS(Cart)=  0.00000083 RMS(Int)=  0.00000000
 ClnCor:  largest displacement from symmetrization is 8.88D-16 for atom     3.
 Variable       Old X    -DE/DX   Delta X   Delta X   Delta X     New X
                                 (Linear)    (Quad)   (Total)
    R1        1.86957   0.00005  -0.00070   0.00052  -0.00018   1.86939
    R2        1.86957   0.00005  -0.00070   0.00052  -0.00018   1.86939
    A1        1.85824   0.00046   0.00200   0.00086   0.00286   1.86110
         Item               Value     Threshold  Converged?
 Maximum Force            0.000457     0.000450     NO 
 RMS     Force            0.000267     0.000300     YES
 Maximum Displacement     0.001619     0.001800     YES
 RMS     Displacement     0.001591     0.001200     NO 
 Predicted change in Energy=-6.461556D-07
 Lowest energy point so far.  Saving SCF results.
 GradGradGradGradGradGradGradGradGradGradGradGradGradGradGradGradGradGrad

 Leave Link  103 at Wed Feb 21 13:47:18 2024, MaxMem=  4294967296 cpu:               0.1 elap:               0.0
 (Enter /opt/gaussian/gdv-20240213-j26+/gdv/l202.exe)
                          Input orientation:                          
 ---------------------------------------------------------------------
 Center     Atomic      Atomic             Coordinates (Angstroms)
 Number     Number       Type             X           Y           Z
 ---------------------------------------------------------------------
      1          8           0       -0.019980    0.000000   -0.014128
      2          1           0        0.004516   -0.000000    0.974805
      3          1           0        0.920560    0.000000   -0.320677
 ---------------------------------------------------------------------
                    Distance matrix (angstroms):
                    1          2          3
     1  O    0.000000
     2  H    0.989236   0.000000
     3  H    0.989236   1.586635   0.000000
 Stoichiometry    H2O
 Framework group  C2V[C2(O),SGV(H2)]
 Deg. of freedom     2
 Full point group                 C2V     NOp   4
 RotChk:  IX=0 Diff= 6.28D-16
 Largest Abelian subgroup         C2V     NOp   4
 Largest concise Abelian subgroup C2      NOp   2
                         Standard orientation:                         
 ---------------------------------------------------------------------
 Center     Atomic      Atomic             Coordinates (Angstroms)
 Number     Number       Type             X           Y           Z
 ---------------------------------------------------------------------
      1          8           0       -0.000000    0.000000    0.118192
      2          1           0       -0.000000    0.793318   -0.472769
      3          1           0       -0.000000   -0.793318   -0.472769
 ---------------------------------------------------------------------
 Rotational constants (GHZ):         808.4044053         398.3895925         266.8723097
 Leave Link  202 at Wed Feb 21 13:47:18 2024, MaxMem=  4294967296 cpu:               0.1 elap:               0.0
 (Enter /opt/gaussian/gdv-20240213-j26+/gdv/l301.exe)
 Standard basis: 6-31G (6D, 7F)
 Ernie: Thresh=  0.10000D-02 Tol=  0.10000D-05 Strict=F.
 There are     7 symmetry adapted cartesian basis functions of A1  symmetry.
 There are     0 symmetry adapted cartesian basis functions of A2  symmetry.
 There are     2 symmetry adapted cartesian basis functions of B1  symmetry.
 There are     4 symmetry adapted cartesian basis functions of B2  symmetry.
 There are     7 symmetry adapted basis functions of A1  symmetry.
 There are     0 symmetry adapted basis functions of A2  symmetry.
 There are     2 symmetry adapted basis functions of B1  symmetry.
 There are     4 symmetry adapted basis functions of B2  symmetry.
    13 basis functions,    30 primitive gaussians,    13 cartesian basis functions
     5 alpha electrons        5 beta electrons
       nuclear repulsion energy         8.8924830041 Hartrees.
 IExCor=      4002 DFT=T Ex=B Corr=LYP N6=None ScaHFX=  0.000000
 ScaDFX=  1.000000  1.000000  1.000000  1.000000  1.000000  0.000000
 ScaDFX=  0.000000  0.000000  0.000000  0.000000  0.000000  0.000000
 IRadAn=      5 IRanWt=     -1 IRanGd=            0 ICorTp=0 IEmpDi=  4
 NAtoms=    3 NActive=    3 NUniq=    2 SFac= 2.25D+00 NAtFMM=   60 NAOKFM=F Big=F
 Integral buffers will be    131072 words long.
 Raffenetti 2 integral format.
 Two-electron integral symmetry is turned on.
 Leave Link  301 at Wed Feb 21 13:47:18 2024, MaxMem=  4294967296 cpu:               0.1 elap:               0.1
 (Enter /opt/gaussian/gdv-20240213-j26+/gdv/l302.exe)
 NPDir=0 NMtPBC=     1 NCelOv=     1 NCel=       1 NClECP=     1 NCelD=      1
         NCelK=      1 NCelE2=     1 NClLst=     1 CellRange=     0.0.
 One-electron integrals computed using PRISM.
 One-electron integral symmetry used in STVInt
 NBasis=    13 RedAO= T EigKep=  7.29D-02  NBF=     7     0     2     4
 NBsUse=    13 1.00D-06 EigRej= -1.00D+00 NBFU=     7     0     2     4
 Precomputing XC quadrature grid using
 IXCGrd= 4 IRadAn=           5 IRanWt=          -1 IRanGd=           0 AccXCQ= 0.00D+00.
 Generated NRdTot=       0 NPtTot=       68315 NUsed=           0 NTot=          64
 NSgBfM=    13    13    13    13    13 MxSgAt=     3 MxSgA2=     3 SizInc=   0.000
 NMBTot=      626 MaxBatPerAtom=       82 MaxMicBPerAtom=      211 NBfPt=              766317.
 Leave Link  302 at Wed Feb 21 13:47:18 2024, MaxMem=  4294967296 cpu:               0.8 elap:               0.1
 (Enter /opt/gaussian/gdv-20240213-j26+/gdv/l303.exe)
 DipDrv:  MaxL=1.
 Leave Link  303 at Wed Feb 21 13:47:18 2024, MaxMem=  4294967296 cpu:               0.1 elap:               0.1
 (Enter /opt/gaussian/gdv-20240213-j26+/gdv/l308.exe)
 Leave Link  308 at Wed Feb 21 13:47:18 2024, MaxMem=  4294967296 cpu:               0.1 elap:               0.1
 (Enter /opt/gaussian/gdv-20240213-j26+/gdv/l320.exe)
 Enter DskPsm, NBasis=  13 NBas6D=  13 NShell=   7 IDoSP=3 IDer=0 ISMode=2.
 Generating unsorted Raff 2 combos
 Use symmetry via Dacre-Elder procedure.
 NGot=  4294705106 Memory for integrals=  4294697642 for sort=           0.
 Out2e will use a cutoff of  1.00D-10
         1282 integrals produced for a total of         1282.
 Leave Link  320 at Wed Feb 21 13:47:18 2024, MaxMem=  4294967296 cpu:               0.8 elap:               0.1
 (Enter /opt/gaussian/gdv-20240213-j26+/gdv/l401.exe)
 Initial guess from the checkpoint file:  "h2o_dipole_gs.chk"
 B after Tr=    -0.000000   -0.000000   -0.000000
         Rot=    1.000000   -0.000000   -0.000000    0.000000 Ang=   0.00 deg.
 AO Guess basis will be translated and rotated to current coordinates.
 JPrj=2 DoOrth=T DoCkMO=T.
 Initial guess orbital symmetries:
 Alpha Orbitals:
       Occupied  (A1) (A1) (B2) (A1) (B1)
       Virtual   (A1) (B2) (B2) (A1) (B1) (A1) (B2) (A1)
 Beta  Orbitals:
       Occupied  (A1) (A1) (B2) (A1) (B1)
       Virtual   (A1) (B2) (B2) (A1) (B1) (A1) (B2) (A1)
 The electronic state of the initial guess is 1-A1.
 Initial guess <Sx>=  0.0000 <Sy>=  0.0000 <Sz>=  0.0000 <S**2>=   0.0000 S=  0.0000
 Leave Link  401 at Wed Feb 21 13:47:18 2024, MaxMem=  4294967296 cpu:               0.2 elap:               0.1
 (Enter /opt/gaussian/gdv-20240213-j26+/gdv/l502.exe)
 Two-electron integrals will be kept in memory, NGetB=      262724.
 Integral symmetry usage will be decided dynamically.
 UHF open shell SCF:
 Using DIIS extrapolation, IDIIS=  1040.
 NGot=  4294967296 LenX=  4294703253 LenY=  4294702371
 Requested convergence on RMS density matrix=1.00D-08 within 128 cycles.
 Requested convergence on MAX density matrix=1.00D-06.
 Requested convergence on             energy=1.00D-06.
 No special actions if energy rises.

 Cycle   1  Pass 1  IDiag  1:
 E= -76.3666760723339    
 DIIS: error= 1.32D-04 at cycle   1 NSaved=   1.
 NSaved= 1 IEnMin= 1 EnMin= -76.3666760723339     IErMin= 1 ErrMin= 1.32D-04
 ErrMax= 1.32D-04  0.00D+00 EMaxC= 1.00D-01 BMatC= 6.89D-07 BMatP= 6.89D-07
 Rises=F IDIUse=3 WtCom= 1.00D+00 WtEn= 1.52D-04
 Coeff-Com:  0.100D+01
 Coeff-En:   0.100D+01
 Coeff:      0.100D+01
 Gap=     0.244 Goal=   None    Shift=    0.000
 Gap=     0.244 Goal=   None    Shift=    0.000
 RMSDP=8.12D-05 MaxDP=3.77D-04              OVMax= 3.80D-04

 Cycle   2  Pass 1  IDiag  1:
 E= -76.3666763634920     Delta-E=       -0.000000291158 Rises=F Damp=F AM=F Ri=F Fa=F
 DIIS: error= 5.94D-05 at cycle   2 NSaved=   2.
 NSaved= 2 IEnMin= 2 EnMin= -76.3666763634920     IErMin= 2 ErrMin= 5.94D-05
 ErrMax= 5.94D-05  0.00D+00 EMaxC= 1.00D-01 BMatC= 1.80D-07 BMatP= 6.89D-07
 Rises=F IDIUse=1 WtCom= 1.00D+00 WtEn= 0.00D+00
 Coeff-Com:  0.240D+00 0.760D+00
 Coeff:      0.240D+00 0.760D+00
 Gap=     0.244 Goal=   None    Shift=    0.000
 Gap=     0.244 Goal=   None    Shift=    0.000
 RMSDP=2.75D-05 MaxDP=1.24D-04 DE=-2.91D-07 OVMax= 1.41D-04

 Cycle   3  Pass 1  IDiag  1:
 E= -76.3666763506995     Delta-E=        0.000000012793 Rises=F Damp=F AM=F Ri=F Fa=F
 DIIS: error= 6.96D-05 at cycle   3 NSaved=   3.
 NSaved= 3 IEnMin= 2 EnMin= -76.3666763634920     IErMin= 2 ErrMin= 5.94D-05
 ErrMax= 6.96D-05  0.00D+00 EMaxC= 1.00D-01 BMatC= 2.72D-07 BMatP= 1.80D-07
 Rises=F IDIUse=1 WtCom= 1.00D+00 WtEn= 0.00D+00
 Coeff-Com:  0.112D-01 0.547D+00 0.442D+00
 Coeff:      0.112D-01 0.547D+00 0.442D+00
 Gap=     0.244 Goal=   None    Shift=    0.000
 Gap=     0.244 Goal=   None    Shift=    0.000
 RMSDP=1.29D-05 MaxDP=5.91D-05 DE= 1.28D-08 OVMax= 6.05D-05

 Cycle   4  Pass 1  IDiag  1:
 E= -76.3666764006154     Delta-E=       -0.000000049916 Rises=F Damp=F AM=F Ri=F Fa=F
 DIIS: error= 2.20D-06 at cycle   4 NSaved=   4.
 NSaved= 4 IEnMin= 4 EnMin= -76.3666764006154     IErMin= 4 ErrMin= 2.20D-06
 ErrMax= 2.20D-06  0.00D+00 EMaxC= 1.00D-01 BMatC= 2.05D-10 BMatP= 1.80D-07
 Rises=F IDIUse=1 WtCom= 1.00D+00 WtEn= 0.00D+00
 Coeff-Com:  0.106D-02 0.102D+00 0.622D-01 0.835D+00
 Coeff:      0.106D-02 0.102D+00 0.622D-01 0.835D+00
 Gap=     0.244 Goal=   None    Shift=    0.000
 Gap=     0.244 Goal=   None    Shift=    0.000
 RMSDP=6.78D-07 MaxDP=2.06D-06 DE=-4.99D-08 OVMax= 4.19D-06

 Cycle   5  Pass 1  IDiag  1:
 E= -76.3666764006736     Delta-E=       -0.000000000058 Rises=F Damp=F AM=F Ri=F Fa=F
 DIIS: error= 6.41D-08 at cycle   5 NSaved=   5.
 NSaved= 5 IEnMin= 5 EnMin= -76.3666764006736     IErMin= 5 ErrMin= 6.41D-08
 ErrMax= 6.41D-08  0.00D+00 EMaxC= 1.00D-01 BMatC= 2.71D-13 BMatP= 2.05D-10
 Rises=F IDIUse=1 WtCom= 1.00D+00 WtEn= 0.00D+00
 Coeff-Com:  0.403D-04 0.678D-02 0.326D-02 0.542D-01 0.936D+00
 Coeff:      0.403D-04 0.678D-02 0.326D-02 0.542D-01 0.936D+00
 Gap=     0.244 Goal=   None    Shift=    0.000
 Gap=     0.244 Goal=   None    Shift=    0.000
 RMSDP=1.83D-08 MaxDP=6.82D-08 DE=-5.81D-11 OVMax= 9.85D-08

 Cycle   6  Pass 1  IDiag  1:
 E= -76.3666764006737     Delta-E=       -0.000000000000 Rises=F Damp=F AM=F Ri=F Fa=F
 DIIS: error= 2.36D-09 at cycle   6 NSaved=   6.
 NSaved= 6 IEnMin= 6 EnMin= -76.3666764006737     IErMin= 6 ErrMin= 2.36D-09
 ErrMax= 2.36D-09  0.00D+00 EMaxC= 1.00D-01 BMatC= 2.82D-16 BMatP= 2.71D-13
 Rises=F IDIUse=1 WtCom= 1.00D+00 WtEn= 0.00D+00
 Coeff-Com:  0.986D-06 0.474D-03 0.180D-03 0.344D-02 0.102D+00 0.893D+00
 Coeff:      0.986D-06 0.474D-03 0.180D-03 0.344D-02 0.102D+00 0.893D+00
 Gap=     0.244 Goal=   None    Shift=    0.000
 Gap=     0.244 Goal=   None    Shift=    0.000
 RMSDP=8.99D-10 MaxDP=5.12D-09 DE=-1.14D-13 OVMax= 4.11D-09

 SCF Done:  E(UB-LYP) =  -76.3666764007     A.U. after    6 cycles
            NFock=  6  Conv=0.90D-09     -V/T= 2.0052
 <Sx>=  0.0000 <Sy>=  0.0000 <Sz>=  0.0000 <S**2>=  -0.0000 S= -0.0000
 <L.S>=  0.00000000000    
 KE=          75.971109 PE=        -198.488580 EE=          37.258311
 Annihilation of the first spin contaminant:
 S**2 before annihilation    -0.0000,   after     0.0000
 Leave Link  502 at Wed Feb 21 13:47:19 2024, MaxMem=  4294967296 cpu:               1.2 elap:               0.2
 (Enter /opt/gaussian/gdv-20240213-j26+/gdv/l701.exe)
 ... and contract with generalized density number  0.
 Compute integral first derivatives.
 Leave Link  701 at Wed Feb 21 13:47:19 2024, MaxMem=  4294967296 cpu:               0.8 elap:               0.1
 (Enter /opt/gaussian/gdv-20240213-j26+/gdv/l702.exe)
 L702 exits ... SP integral derivatives will be done elsewhere.
 Leave Link  702 at Wed Feb 21 13:47:19 2024, MaxMem=  4294967296 cpu:               0.1 elap:               0.1
 (Enter /opt/gaussian/gdv-20240213-j26+/gdv/l703.exe)
 Integral derivatives from FoFJK, PRISM(SPDF).
 Compute integral first derivatives, UseDBF=F ICtDFT=           0.
 Calling FoFJK, ICntrl=      2527 FMM=F ISym2X=1 I1Cent= 0 IOpClX= 0 NMat=1 NMatS=1 NMatT=0.
 FoFJK:  IHMeth= 1 ICntrl=    2527 DoSepK=F KAlg= 0 I1Cent=           0 FoldK=F
 IRaf=         0 NMat=       1 IRICut=       1 DoRegI=T DoRafI=F ISym2E= 1 IDoP0=0 IntGTp=1.
 FoFCou: FMM=F IPFlag=           0 FMFlag=      100000 FMFlg1=         800
         NFxFlg=           0 DoJE=F BraDBF=F KetDBF=F FulRan=T
         wScrn=  0.000000 ICntrl=      2527 IOpCl=  0 I1Cent=           0 NGrid=           0
         NMat0=    1 NMatS0=      1 NMatT0=    0 NMatD0=    1 NMtDS0=    0 NMtDT0=    0
 Petite list used in FoFCou.
 Leave Link  703 at Wed Feb 21 13:47:19 2024, MaxMem=  4294967296 cpu:               1.0 elap:               0.2
 (Enter /opt/gaussian/gdv-20240213-j26+/gdv/l716.exe)
 Dipole        =-5.87525582D-17 0.00000000D+00-9.17692887D-01
 ***** Axes restored to original set *****
 -------------------------------------------------------------------
 Center     Atomic                   Forces (Hartrees/Bohr)
 Number     Number              X              Y              Z
 -------------------------------------------------------------------
      1        8          -0.000005936    0.000000000   -0.000004197
      2        1           0.000000936   -0.000000000    0.000004971
      3        1           0.000004999   -0.000000000   -0.000000774
 -------------------------------------------------------------------
 Cartesian Forces:  Max     0.000005936 RMS     0.000003400
 Leave Link  716 at Wed Feb 21 13:47:19 2024, MaxMem=  4294967296 cpu:               0.1 elap:               0.1
 (Enter /opt/gaussian/gdv-20240213-j26+/gdv/l103.exe)

 GradGradGradGradGradGradGradGradGradGradGradGradGradGradGradGradGradGrad
 Berny optimization.
 Using GEDIIS/GDIIS optimizer.
[...]
 Alpha virt. eigenvalues --        0.02265       0.10862       0.75758       0.78152       0.83651
 Alpha virt. eigenvalues --        0.89808       1.00872       1.35869
  Beta  occ. eigenvalues --      -18.78162      -0.90364      -0.46245      -0.28611      -0.22125
  Beta virt. eigenvalues --        0.02265       0.10862       0.75758       0.78152       0.83651
  Beta virt. eigenvalues --        0.89808       1.00872       1.35869
          Condensed to atoms (all electrons):
               1          2          3
     1  O    8.219638   0.228826   0.228826
     2  H    0.228826   0.465964  -0.033436
     3  H    0.228826  -0.033436   0.465964
          Atomic-Atomic Spin Densities.
               1          2          3
     1  O    0.000000   0.000000   0.000000
     2  H    0.000000   0.000000   0.000000
     3  H    0.000000   0.000000   0.000000
 Mulliken charges and spin densities:
               1          2
     1  O   -0.677291   0.000000
     2  H    0.338645   0.000000
     3  H    0.338645   0.000000
 Sum of Mulliken charges =  -0.00000   0.00000
 Mulliken charges and spin densities with hydrogens summed into heavy atoms:
               1          2
     1  O   -0.000000   0.000000
 Electronic spatial extent (au):  <R**2>=             19.6637
 Charge=             -0.0000 electrons
 Dipole moment (field-independent basis, Debye):
    X=             -0.0000    Y=              0.0000    Z=             -2.3325  Tot=              2.3325
 Quadrupole moment (field-independent basis, Debye-Ang):
   XX=             -7.2276   YY=             -4.2554   ZZ=             -6.2356
   XY=              0.0000   XZ=              0.0000   YZ=             -0.0000
 Traceless Quadrupole moment (field-independent basis, Debye-Ang):
   XX=             -1.3214   YY=              1.6508   ZZ=             -0.3294
   XY=              0.0000   XZ=              0.0000   YZ=             -0.0000
 Octapole moment (field-independent basis, Debye-Ang**2):
  XXX=              0.0000  YYY=              0.0000  ZZZ=             -1.1657  XYY=             -0.0000
  XXY=              0.0000  XXZ=             -0.3324  XZZ=              0.0000  YZZ=             -0.0000
  YYZ=             -1.1070  XYZ=             -0.0000
 Hexadecapole moment (field-independent basis, Debye-Ang**3):
 XXXX=             -5.2373 YYYY=             -6.5200 ZZZZ=             -6.5264 XXXY=             -0.0000
 XXXZ=             -0.0000 YYYX=             -0.0000 YYYZ=             -0.0000 ZZZX=             -0.0000
 ZZZY=              0.0000 XXYY=             -2.2028 XXZZ=             -2.0055 YYZZ=             -1.9008
 XXYZ=             -0.0000 YYXZ=              0.0000 ZZXY=             -0.0000
 N-N=           8.892483 E-N=        -198.488580  KE=          75.971109
 Symmetry A1   KE=          67.857130
 Symmetry A2   KE=           0.000000
 Symmetry B1   KE=           4.619466
 Symmetry B2   KE=           3.494513
 Symmetry A1   SP=           0.000000
 Symmetry A2   SP=           0.000000
 Symmetry B1   SP=           0.000000
 Symmetry B2   SP=           0.000000

 Atomic contributions to Alpha molecular orbitals:
 Alpha occ 1 OE=-18.782 is O1-s=0.9995
 Alpha occ 2 OE=-0.904 is O1-s=0.7939
 Alpha occ 3 OE=-0.462 is O1-p=0.5970 H3-s=0.2015 H2-s=0.2015
 Alpha occ 4 OE=-0.286 is O1-p=0.7313 O1-s=0.1611
 Alpha occ 5 OE=-0.221 is O1-p=1.0000
 Alpha vir 6 OE=0.023 is H3-s=0.5148 H2-s=0.5148 O1-s=-0.1328 O1-p=0.1031
 Alpha vir 7 OE=0.109 is H2-s=0.4239 H3-s=0.4239 O1-p=0.1521
 Alpha vir 8 OE=0.758 is H2-s=0.4442 H3-s=0.4442 O1-p=0.1116
 Alpha vir 9 OE=0.782 is H3-s=0.3576 H2-s=0.3576 O1-p=0.2857
 Alpha vir 10 OE=0.837 is O1-p=1.0000
 Alpha vir 11 OE=0.898 is O1-p=0.7577
 Alpha vir 12 OE=1.009 is O1-p=1.1393
 Alpha vir 13 OE=1.359 is O1-s=1.0940

 Atomic contributions to Beta  molecular orbitals:
 Beta  occ 1 OE=-18.782 is O1-s=0.9995
 Beta  occ 2 OE=-0.904 is O1-s=0.7939
 Beta  occ 3 OE=-0.462 is O1-p=0.5970 H3-s=0.2015 H2-s=0.2015
 Beta  occ 4 OE=-0.286 is O1-p=0.7313 O1-s=0.1611
 Beta  occ 5 OE=-0.221 is O1-p=1.0000
 Beta  vir 6 OE=0.023 is H3-s=0.5148 H2-s=0.5148 O1-s=-0.1328 O1-p=0.1031
 Beta  vir 7 OE=0.109 is H2-s=0.4239 H3-s=0.4239 O1-p=0.1521
 Beta  vir 8 OE=0.758 is H2-s=0.4442 H3-s=0.4442 O1-p=0.1116
 Beta  vir 9 OE=0.782 is H3-s=0.3576 H2-s=0.3576 O1-p=0.2857
 Beta  vir 10 OE=0.837 is O1-p=1.0000
 Beta  vir 11 OE=0.898 is O1-p=0.7577
 Beta  vir 12 OE=1.009 is O1-p=1.1393
 Beta  vir 13 OE=1.359 is O1-s=1.0940
 
                          Isotropic Fermi Contact Couplings
        Atom                 a.u.       MegaHertz       Gauss      10(-4) cm-1
     1  O(17)              0.00000      -0.00000      -0.00000      -0.00000
     2  H(1)               0.00000       0.00000       0.00000       0.00000
     3  H(1)               0.00000       0.00000       0.00000       0.00000
 --------------------------------------------------------
       Center         ----  Spin Dipole Couplings  ----
                      3XX-RR        3YY-RR        3ZZ-RR
 --------------------------------------------------------
     1   Atom        0.000000      0.000000      0.000000
     2   Atom        0.000000      0.000000      0.000000
     3   Atom        0.000000      0.000000      0.000000
 --------------------------------------------------------
                        XY            XZ            YZ
 --------------------------------------------------------
     1   Atom        0.000000      0.000000      0.000000
     2   Atom        0.000000      0.000000      0.000000
     3   Atom        0.000000      0.000000      0.000000
 --------------------------------------------------------


 ---------------------------------------------------------------------------------
              Anisotropic Spin Dipole Couplings in Principal Axis System
 ---------------------------------------------------------------------------------

       Atom             a.u.   MegaHertz   Gauss  10(-4) cm-1        Axes

              Baa     0.0000    -0.000    -0.000    -0.000  1.0000  0.0000  0.0000
     1 O(17)  Bbb     0.0000    -0.000    -0.000    -0.000 -0.0000  1.0000  0.0000
              Bcc     0.0000    -0.000    -0.000    -0.000  0.0000  0.0000  1.0000
 
              Baa     0.0000     0.000     0.000     0.000  1.0000  0.0000  0.0000
     2 H(1)   Bbb     0.0000     0.000     0.000     0.000 -0.0000  1.0000  0.0000
              Bcc     0.0000     0.000     0.000     0.000  0.0000  0.0000  1.0000
 
              Baa     0.0000     0.000     0.000     0.000  1.0000  0.0000  0.0000
     3 H(1)   Bbb     0.0000     0.000     0.000     0.000 -0.0000  1.0000  0.0000
              Bcc     0.0000     0.000     0.000     0.000  0.0000  0.0000  1.0000
 

 ---------------------------------------------------------------------------------

 No NMR shielding tensors so no spin-rotation constants.
 Leave Link  601 at Wed Feb 21 13:47:19 2024, MaxMem=  4294967296 cpu:               0.9 elap:               0.1
 (Enter /opt/gaussian/gdv-20240213-j26+/gdv/l9999.exe)
 New structure in terms of initial Z-matrix:
 O
 H,1,R2
 H,1,R2,2,A3
      Variables:
 R2=0.98923632
 A3=106.63332985
 Unable to Open any file for archive entry.
 1\1\GINC-NODE14\FOpt\UBLYP\6-31G\H2O1\ABOVILL\21-Feb-2024\0\\#P ublyp 
 6-31G pop=orbitals=20 opt output=(mat,AO2Electronintegrals) guess=save
  geom=modela\\h2o\\0,1\O,-0.0199799569,0.,-0.014127963\H,0.0045162424,
 0.,0.9748050133\H,0.9205603944,0.,-0.3206770502\\Version=ES64L-GDVRevJ
 .26+\State=1-A1\HF=-76.3666764\S2=0.\S2-1=0.\S2A=0.\RMSD=8.988e-10\RMS
 F=3.400e-06\Dipole=0.7492931,0.,0.5298302\Quadrupole=0.2458373,-0.9824
 253,0.7365879,0.,-0.6940262,0.\PG=C02V [C2(O1),SGV(H2)]\\@
 The archive entry for this job was punched.



 IN THIS SHORT LIFE

 THAT ONLY LASTS AN HOUR

 HOW MUCH, HOW LITTLE, IS WITHIN OUR POWER....


 EMILY DICKINSON BOLTS OF MELODY NO. 521
 RW2BAF: Writing unformatted file "h2o_dipole_gs.mat"
 Gaussian matrix elements                                         Version   3 NLab=11 I4Labs=F I2Labs=F
 Writ0E:  Initial coordinates match /B/.
 Write SHELL TO ATOM MAP                   from file      0 offset           0 length                   7 to binary array file.
 Write SHELL TYPES                         from file      0 offset           0 length                   7 to binary array file.
 Write NUMBER OF PRIMITIVES PER SHELL      from file      0 offset           0 length                   7 to binary array file.
 Write PRIMITIVE EXPONENTS                 from file      0 offset           0 length                  18 to binary array file.
 Write CONTRACTION COEFFICIENTS            from file      0 offset           0 length                  18 to binary array file.
 Write P(S=P) CONTRACTION COEFFICIENTS     from file      0 offset           0 length                  18 to binary array file.
 Write COORDINATES OF EACH SHELL           from file      0 offset           0 length                  21 to binary array file.
 Write BONDS PER ATOM                      from file      0 offset           0 length                   3 to binary array file.
 Write BONDED ATOMS                        from file      0 offset           0 length                   4 to binary array file.
 Write BOND TYPES                          from file      0 offset           0 length                   4 to binary array file.
 Write ONIOM CHARGE/MULT                   from file      0 offset           0 length                  32 to binary array file.
 Write ONIOM ATOM LAYERS                   from file      0 offset           0 length                   3 to binary array file.
 Write ONIOM ATOM MODIFIERS                from file      0 offset           0 length                   3 to binary array file.
 Write ONIOM ATOM TYPES                    from file      0 offset           0 length                   3 to binary array file.
 Write ONIOM LINK ATOMS                    from file      0 offset           0 length                   3 to binary array file.
 Write ONIOM LINK CHARGES                  from file      0 offset           0 length                   3 to binary array file.
 Write ONIOM LINK DISTANCES                from file      0 offset           0 length                  12 to binary array file.
 Write SYMINF INTEGERS                     from file      0 offset           0 length                  26 to binary array file.
 Write ROTTR TO INPUT ORIENTATION          from file      0 offset           0 length                  12 to binary array file.
 Write TITLE                               from file      0 offset           0 length                   1 to binary array file.
 Write ROUTE                               from file      0 offset           0 length                  12 to binary array file.
 Write INFO1-9                             from file      0 offset           0 length                   9 to binary array file.
 Write METHOD                              from file      0 offset           0 length                   1 to binary array file.
 Write BASIS NAME                          from file      0 offset           0 length                   1 to binary array file.
 Write LINK0 COMMANDS                      from file      0 offset           0 length                   3 to binary array file.
 Write POINT GROUP                         from file      0 offset           0 length                   2 to binary array file.
 Write POINT GROUP DIMENSIONS              from file      0 offset           0 length                   8 to binary array file.
 Write POINT GROUP IRREP NAMES             from file      0 offset           0 length                   4 to binary array file.
 Write POINT GROUP CLASS NAMES             from file      0 offset           0 length                   4 to binary array file.
 Write POINT GROUP GENERATORS              from file      0 offset           0 length                   2 to binary array file.
 Write POINT GROUP CLASS OF OPERATORS      from file      0 offset           0 length                   4 to binary array file.
 Write POINT GROUP ROTATIONS               from file      0 offset           0 length                  48 to binary array file.
 Write POINT GROUP CELL TRANS              from file      0 offset           0 length                  12 to binary array file.
 Write POINT GROUP CHAR TABLE              from file      0 offset           0 length                  16 to binary array file.
 Write POINT GROUP ATOM PERMUTATIONS       from file      0 offset           0 length                  12 to binary array file.
 Write ILSW                                from file      0 offset           0 length                 100 to binary array file.
 Write RLSW                                from file      0 offset           0 length                 100 to binary array file.
 Write GAUSSIAN SCALARS                    from file 100501 offset           0 to binary array file.
 Write OPTIMIZATION FLAGS                  from file      0 offset           0 length                   3 to binary array file.
 Write INTEGER ISO                         from file      0 offset           0 length                   3 to binary array file.
 Write INTEGER SPIN                        from file      0 offset           0 length                   3 to binary array file.
 Write REAL ZEFFECTIVE                     from file      0 offset           0 length                   3 to binary array file.
 Write REAL GFACTOR                        from file      0 offset           0 length                   3 to binary array file.
 Write REAL ZNUCLEAR                       from file      0 offset           0 length                   3 to binary array file.
 Write MULLIKEN CHARGES                    from file      0 offset           0 length                   3 to binary array file.
 Write NUCLEAR GRADIENT                    from file      0 offset           0 length                   9 to binary array file.
 Write NON-ADIABATIC COUPLING              from file      0 offset           0 length                   9 to binary array file.
 Write ELECTRIC DIPOLE MOMENT              from file      0 offset           0 length                   3 to binary array file.
 Write QUADRUPOLE MOMENT                   from file      0 offset           0 length                   6 to binary array file.
 Write ANISOTROPIC HYPERFINE TENSORS       from file      0 offset           0 length                  18 to binary array file.
 Write ISOTROPIC HYPERFINE SPLITTINGS      from file      0 offset           0 length                   3 to binary array file.
 Write QEQ COUPLING TENSORS                from file      0 offset           0 length                  18 to binary array file.
 Write RED INT COORD DIMS                  from file      0 offset           0 length                   4 to binary array file.
 Write RED INT COORD ATOMS                 from file      0 offset           0 length                  12 to binary array file.
 Write RED INT COORD VALS                  from file      0 offset           0 length                   3 to binary array file.
 Write RED INT COORD IFLAGS                from file      0 offset           0 length                   3 to binary array file.
 Write RED INT COORD RFLAGS                from file      0 offset           0 length                   3 to binary array file.
 Write RED INT COORD CONSTRAINT            from file      0 offset           0 length                   6 to binary array file.
 Write OPT SCALARS                         from file      0 offset           0 length                  16 to binary array file.
 Write OPT NUMBER OF STEPS                 from file      0 offset           0 length                   1 to binary array file.
 Write OPT ENERGIES                        from file      0 offset           0 length                   4 to binary array file.
 Write OPT FMAX                            from file      0 offset           0 length                   4 to binary array file.
 Write OPT FRMS                            from file      0 offset           0 length                   4 to binary array file.
 Write OPT DXMAXC                          from file      0 offset           0 length                   4 to binary array file.
 Write OPT DXRMSC                          from file      0 offset           0 length                   4 to binary array file.
 Write OPT COORDINATES                     from file      0 offset           0 length                  36 to binary array file.
 Write OPT GRADIENTS                       from file      0 offset           0 length                  36 to binary array file.
 Write HARM CONSTRAINT C AND FC            from file      0 offset           0 length                  18 to binary array file.
 Write FINITE EM FIELD                     from file 100521 offset           0 length                 105 to binary array file.
 Write OVERLAP                             from file 100514 offset           0 length                  91 to binary array file.
 Write CORE HAMILTONIAN ALPHA              from file 100515 offset           0 length                  91 to binary array file.
 Write CORE HAMILTONIAN BETA               from file 100515 offset          91 length                  91 to binary array file.
 Write KINETIC ENERGY                      from file 100516 offset           0 length                  91 to binary array file.
 Write ORTHONORMAL BASIS                   from file 100685 offset           0 length                 169 to binary array file.
 Write DIPOLE INTEGRALS                    from file 100518 offset           0 length                 273 to binary array file.
 Write DIP VEL INTEGRALS                   from file 100572 offset           0 length                 273 to binary array file.
 Write R X DEL INTEGRALS                   from file 100572 offset         273 length                 273 to binary array file.
 Write R X DEL - DEL X R INTEGRALS         from file 100572 offset         546 length                 546 to binary array file.
 Array MAGNETIC FIELD P1 (GIAO)             on  file 100696 does not exist.
 Write ALPHA ORBITAL ENERGIES              from file      0 offset           0 length                  13 to binary array file.
 Write BETA ORBITAL ENERGIES               from file      0 offset           0 length                  13 to binary array file.
 Write ALPHA MO COEFFICIENTS               from file 100524 offset           0 length                 169 to binary array file.
 Write BETA MO COEFFICIENTS                from file 100526 offset           0 length                 169 to binary array file.
 Write ALPHA DENSITY MATRIX                from file      0 offset           0 length                  91 to binary array file.
 Write BETA DENSITY MATRIX                 from file      0 offset           0 length                  91 to binary array file.
 Write SCF ORBITAL OCCUPATIONS             from file 100861 offset           0 length                  26 to binary array file.
 Write ALPHA FOCK MATRIX                   from file 100536 offset           0 length                  91 to binary array file.
 Write BETA FOCK MATRIX                    from file 100538 offset           0 length                  91 to binary array file.
 Write ENERGY-WEIGHTED DENSITY             from file 100571 offset           0 length                  91 to binary array file.
 Write ALPHA SCF DENSITY MATRIX            from file      0 offset           0 length                  91 to binary array file.
 Write BETA SCF DENSITY MATRIX             from file      0 offset           0 length                  91 to binary array file.
 Write RAFFENETTI 2E INTEGRALS             to binary array file, NR=2 ITotal=        1282.
 Job cpu time:       0 days  0 hours  0 minutes 31.1 seconds.
 Elapsed time:       0 days  0 hours  0 minutes  7.1 seconds.
 File lengths (MBytes):  RWF=      6 Int=      1 D2E=      0 Chk=      2 Scr=      1
 Normal termination of Gaussian DV at Wed Feb 21 13:47:20 2024.
